      -----------------------------------------------------------      
     |                   =====================                   |     
     |                           x T B                           |     
     |                   =====================                   |     
     |                         S. Grimme                         |     
     |          Mulliken Center for Theoretical Chemistry        |     
     |                    University of Bonn                     |     
      -----------------------------------------------------------      

   * xtb version 6.6.0 (2ccbbd7) compiled by 'conda@6fe65c42fc39' on 2023-02-10

   xtb is free software: you can redistribute it and/or modify it under
   the terms of the GNU Lesser General Public License as published by
   the Free Software Foundation, either version 3 of the License, or
   (at your option) any later version.
   
   xtb is distributed in the hope that it will be useful,
   but WITHOUT ANY WARRANTY; without even the implied warranty of
   MERCHANTABILITY or FITNESS FOR A PARTICULAR PURPOSE.  See the
   GNU Lesser General Public License for more details.
   
   Cite this work as:
   * C. Bannwarth, E. Caldeweyher, S. Ehlert, A. Hansen, P. Pracht,
     J. Seibert, S. Spicher, S. Grimme, WIREs Comput. Mol. Sci., 2020, 11,
     e01493. DOI: 10.1002/wcms.1493
   
   for GFN2-xTB:
   * C. Bannwarth, S. Ehlert and S. Grimme., J. Chem. Theory Comput., 2019,
     15, 1652-1671. DOI: 10.1021/acs.jctc.8b01176
   for GFN1-xTB:
   * S. Grimme, C. Bannwarth, P. Shushkov, J. Chem. Theory Comput., 2017,
     13, 1989-2009. DOI: 10.1021/acs.jctc.7b00118
   for GFN0-xTB:
   * P. Pracht, E. Caldeweyher, S. Ehlert, S. Grimme, ChemRxiv, 2019, preprint.
     DOI: 10.26434/chemrxiv.8326202.v1
   for GFN-FF:
   * S. Spicher and S. Grimme, Angew. Chem. Int. Ed., 2020, 59, 15665-15673.
     DOI: 10.1002/anie.202004239
   
   for ALPB and GBSA implicit solvation:
   * S. Ehlert, M. Stahn, S. Spicher, S. Grimme, J. Chem. Theory Comput.,
     2021, 17, 4250-4261. DOI: 10.1021/acs.jctc.1c00471
   
   for DFT-D4:
   * E. Caldeweyher, C. Bannwarth and S. Grimme, J. Chem. Phys., 2017,
     147, 034112. DOI: 10.1063/1.4993215
   * E. Caldeweyher, S. Ehlert, A. Hansen, H. Neugebauer, S. Spicher,
     C. Bannwarth and S. Grimme, J. Chem. Phys., 2019, 150, 154122.
     DOI: 10.1063/1.5090222
   * E. Caldeweyher, J.-M. Mewes, S. Ehlert and S. Grimme, Phys. Chem. Chem. Phys.
     2020, 22, 8499-8512. DOI: 10.1039/D0CP00502A
   
   for sTDA-xTB:
   * S. Grimme and C. Bannwarth, J. Chem. Phys., 2016, 145, 054103.
     DOI: 10.1063/1.4959605
   
   in the mass-spec context:
   * V. Asgeirsson, C. Bauer and S. Grimme, Chem. Sci., 2017, 8, 4879.
     DOI: 10.1039/c7sc00601b
   * J. Koopman and S. Grimme, ACS Omega 2019, 4, 12, 15120-15133.
     DOI: 10.1021/acsomega.9b02011
   
   for metadynamics refer to:
   * S. Grimme, J. Chem. Theory Comput., 2019, 155, 2847-2862
     DOI: 10.1021/acs.jctc.9b00143
   
   for SPH calculations refer to:
   * S. Spicher and S. Grimme, J. Chem. Theory Comput., 2021, 17, 1701-1714
     DOI: 10.1021/acs.jctc.0c01306
   
   with help from (in alphabetical order)
   P. Atkinson, C. Bannwarth, F. Bohle, G. Brandenburg, E. Caldeweyher
   M. Checinski, S. Dohm, S. Ehlert, S. Ehrlich, I. Gerasimov, C. Hölzer
   A. Katbashev, J. Koopman, C. Lavigne, S. Lehtola, F. März, M. Müller,
   F. Musil, H. Neugebauer, J. Pisarek, C. Plett, P. Pracht, F. Pultar,
   J. Seibert, P. Shushkov, S. Spicher, M. Stahn, M. Steiner, T. Strunk,
   J. Stückrath, T. Rose, and J. Unsleber
   
 * started run on 2023/12/24 at 02:46:31.794     

           -------------------------------------------------
          |                Calculation Setup                |
           -------------------------------------------------

          program call               : xtb gau_xtb.xyz --chrg 0 --uhf 0 --grad
          hostname                   : node34
          coordinate file            : gau_xtb.xyz
          omp threads                :                    12

   ID    Z sym.   atoms
    1    6 C      1-6, 8-10, 12, 14, 16, 18-24, 26, 28, 29
    2    7 N      7, 11, 15
    3    8 O      13, 17, 25, 27
    4    1 H      30-48

           -------------------------------------------------
          |                 G F N 2 - x T B                 |
           -------------------------------------------------

        Reference                      10.1021/acs.jctc.8b01176
      * Hamiltonian:
        H0-scaling (s, p, d)           1.850000    2.230000    2.230000
        zeta-weighting                 0.500000
      * Dispersion:
        s8                             2.700000
        a1                             0.520000
        a2                             5.000000
        s9                             5.000000
      * Repulsion:
        kExp                           1.500000    1.000000
        rExp                           1.000000
      * Coulomb:
        alpha                          2.000000
        third order                    shell-resolved
        anisotropic                    true
        a3                             3.000000
        a5                             4.000000
        cn-shift                       1.200000
        cn-exp                         4.000000
        max-rad                        5.000000


          ...................................................
          :                      SETUP                      :
          :.................................................:
          :  # basis functions                 135          :
          :  # atomic orbitals                 135          :
          :  # shells                           77          :
          :  # electrons                       146          :
          :  max. iterations                   250          :
          :  Hamiltonian                  GFN2-xTB          :
          :  restarted?                      false          :
          :  GBSA solvation                  false          :
          :  PC potential                    false          :
          :  electronic temp.          300.0000000     K    :
          :  accuracy                    1.0000000          :
          :  -> integral cutoff          0.2500000E+02      :
          :  -> integral neglect         0.1000000E-07      :
          :  -> SCF convergence          0.1000000E-05 Eh   :
          :  -> wf. convergence          0.1000000E-03 e    :
          :  Broyden damping             0.4000000          :
          ...................................................

 iter      E             dE          RMSdq      gap      omega  full diag
   1    -82.8371102 -0.828371E+02  0.407E+00    3.22       0.0  T
   2    -82.9923499 -0.155240E+00  0.244E+00    3.33       1.0  T
   3    -82.9984875 -0.613752E-02  0.128E+00    3.48       1.0  T
   4    -83.0029685 -0.448108E-02  0.470E-01    3.35       1.0  T
   5    -83.0131997 -0.102312E-01  0.111E-01    3.39       1.0  T
   6    -83.0134135 -0.213740E-03  0.608E-02    3.39       1.0  T
   7    -83.0134891 -0.756723E-04  0.234E-02    3.39       1.0  T
   8    -83.0134909 -0.179551E-05  0.107E-02    3.39       1.4  T
   9    -83.0134943 -0.342012E-05  0.306E-03    3.39       4.7  T
  10    -83.0134944 -0.776709E-07  0.136E-03    3.39      10.6  T
  11    -83.0134945 -0.321301E-07  0.603E-04    3.39      23.9  T
  12    -83.0134945 -0.503555E-08  0.271E-04    3.39      53.4  T

   *** convergence criteria satisfied after 12 iterations ***

         #    Occupation            Energy/Eh            Energy/eV
      -------------------------------------------------------------
         1        2.0000           -0.7479293             -20.3522
       ...           ...                  ...                  ...
        67        2.0000           -0.4133924             -11.2490
        68        2.0000           -0.4062943             -11.0558
        69        2.0000           -0.4029479             -10.9648
        70        2.0000           -0.3972105             -10.8086
        71        2.0000           -0.3833586             -10.4317
        72        2.0000           -0.3790437             -10.3143
        73        2.0000           -0.3628385              -9.8733 (HOMO)
        74                         -0.2381761              -6.4811 (LUMO)
        75                         -0.2331632              -6.3447
        76                         -0.2279948              -6.2041
        77                         -0.2261613              -6.1542
        78                         -0.2174308              -5.9166
       ...                                ...                  ...
       135                          0.6935596              18.8727
      -------------------------------------------------------------
                  HL-Gap            0.1246623 Eh            3.3922 eV
             Fermi-level           -0.3005073 Eh           -8.1772 eV

 SCC (total)                   0 d,  0 h,  0 min,  1.945 sec
 SCC setup                      ...        0 min,  0.004 sec (  0.187%)
 Dispersion                     ...        0 min,  0.013 sec (  0.686%)
 classical contributions        ...        0 min,  0.022 sec (  1.151%)
 integral evaluation            ...        0 min,  0.033 sec (  1.695%)
 iterations                     ...        0 min,  1.806 sec ( 92.858%)
 molecular gradient             ...        0 min,  0.065 sec (  3.320%)
 printout                       ...        0 min,  0.002 sec (  0.094%)

         :::::::::::::::::::::::::::::::::::::::::::::::::::::
         ::                     SUMMARY                     ::
         :::::::::::::::::::::::::::::::::::::::::::::::::::::
         :: total energy             -81.913768046095 Eh    ::
         :: gradient norm              0.061153395227 Eh/a0 ::
         :: HOMO-LUMO gap              3.392234799934 eV    ::
         ::.................................................::
         :: SCC energy               -83.013494459600 Eh    ::
         :: -> isotropic ES            0.108589673280 Eh    ::
         :: -> anisotropic ES          0.007263292899 Eh    ::
         :: -> anisotropic XC          0.020562045255 Eh    ::
         :: -> dispersion             -0.058985786339 Eh    ::
         :: repulsion energy           1.098992632484 Eh    ::
         :: add. restraining           0.000000000000 Eh    ::
         :: total charge               0.000000000000 e     ::
         :::::::::::::::::::::::::::::::::::::::::::::::::::::

           -------------------------------------------------
          |                Property Printout                |
           -------------------------------------------------

    * Orbital Energies and Occupations

         #    Occupation            Energy/Eh            Energy/eV
      -------------------------------------------------------------
         1        2.0000           -0.7479293             -20.3522
       ...           ...                  ...                  ...
        61        2.0000           -0.4474270             -12.1751
        62        2.0000           -0.4392171             -11.9517
        63        2.0000           -0.4263606             -11.6019
        64        2.0000           -0.4209347             -11.4542
        65        2.0000           -0.4176050             -11.3636
        66        2.0000           -0.4141962             -11.2709
        67        2.0000           -0.4133924             -11.2490
        68        2.0000           -0.4062943             -11.0558
        69        2.0000           -0.4029479             -10.9648
        70        2.0000           -0.3972105             -10.8086
        71        2.0000           -0.3833586             -10.4317
        72        2.0000           -0.3790437             -10.3143
        73        2.0000           -0.3628385              -9.8733 (HOMO)
        74                         -0.2381761              -6.4811 (LUMO)
        75                         -0.2331632              -6.3447
        76                         -0.2279948              -6.2041
        77                         -0.2261613              -6.1542
        78                         -0.2174308              -5.9166
        79                         -0.2011314              -5.4731
        80                         -0.1643248              -4.4715
        81                         -0.1081955              -2.9442
        82                         -0.0782217              -2.1285
        83                         -0.0461128              -1.2548
        84                         -0.0283414              -0.7712
       ...                                ...                  ...
       135                          0.6935596              18.8727
      -------------------------------------------------------------
                  HL-Gap            0.1246623 Eh            3.3922 eV
             Fermi-level           -0.3005073 Eh           -8.1772 eV

     #   Z          covCN         q      C6AA      α(0)
     1   6 C        2.919    -0.036    28.892     8.814
     2   6 C        2.915    -0.038    28.948     8.823
     3   6 C        2.906    -0.038    28.941     8.821
     4   6 C        3.111    -0.016    28.246     8.707
     5   6 C        3.046    -0.040    28.949     8.824
     6   6 C        3.082     0.028    27.290     8.564
     7   7 N        2.768    -0.117    23.553     7.208
     8   6 C        3.058     0.044    26.964     8.516
     9   6 C        2.903    -0.050    29.237     8.866
    10   6 C        3.812     0.043    19.852     6.342
    11   7 N        2.734    -0.113    23.471     7.195
    12   6 C        2.773     0.263    22.572     7.781
    13   8 O        0.860    -0.435    22.397     6.345
    14   6 C        3.748    -0.025    21.094     6.551
    15   7 N        2.732    -0.090    22.993     7.122
    16   6 C        2.766     0.259    22.634     7.791
    17   8 O        0.859    -0.437    22.423     6.349
    18   6 C        3.796     0.022    20.205     6.401
    19   6 C        3.808    -0.053    21.526     6.605
    20   6 C        3.701    -0.052    21.674     6.657
    21   6 C        2.977     0.003    27.957     8.673
    22   6 C        2.930    -0.041    29.015     8.834
    23   6 C        2.909    -0.054    29.334     8.881
    24   6 C        2.987     0.121    25.328     8.255
    25   8 O        1.712    -0.283    18.694     5.838
    26   6 C        3.795     0.219    17.194     5.905
    27   8 O        1.705    -0.290    18.826     5.858
    28   6 C        2.989     0.127    25.201     8.235
    29   6 C        2.914    -0.061    29.525     8.910
    30   1 H        0.923     0.036     2.501     2.473
    31   1 H        0.924     0.064     2.153     2.295
    32   1 H        0.924     0.051     2.303     2.373
    33   1 H        0.924     0.054     2.273     2.358
    34   1 H        0.925     0.094     1.839     2.120
    35   1 H        0.923     0.067     2.115     2.274
    36   1 H        0.924     0.079     1.995     2.209
    37   1 H        0.924     0.052     2.298     2.370
    38   1 H        0.924     0.071     2.073     2.252
    39   1 H        0.859     0.158     1.349     1.819
    40   1 H        0.925     0.026     2.637     2.540
    41   1 H        0.925     0.031     2.572     2.508
    42   1 H        0.925     0.062     2.181     2.310
    43   1 H        0.926     0.062     2.171     2.304
    44   1 H        0.926     0.061     2.185     2.311
    45   1 H        0.925     0.029     2.603     2.523
    46   1 H        0.924     0.060     2.205     2.322
    47   1 H        0.923     0.051     2.311     2.377
    48   1 H        0.925     0.033     2.538     2.491

 Mol. C6AA /au·bohr⁶  :      29331.222437
 Mol. C8AA /au·bohr⁸  :     708318.323068
 Mol. α(0) /au        :        265.900561


Wiberg/Mayer (AO) data.
largest (>0.10) Wiberg bond orders for each atom

 ---------------------------------------------------------------------------
     #   Z sym  total        # sym  WBO       # sym  WBO       # sym  WBO
 ---------------------------------------------------------------------------
     1   6 C    3.987 --     9 C    1.484     2 C    1.373    41 H    0.972
     2   6 C    3.991 --     3 C    1.512     1 C    1.373    45 H    0.971
     3   6 C    3.987 --     2 C    1.512     4 C    1.315    48 H    0.970
                             9 C    0.116
     4   6 C    3.982 --     3 C    1.315     8 C    1.255     5 C    1.213
     5   6 C    3.969 --     6 C    1.534     4 C    1.213    19 C    1.015
     6   6 C    3.951 --     5 C    1.534     7 N    1.190    10 C    0.996
     7   7 N    3.522 --     6 C    1.190     8 C    1.148    39 H    0.945
     8   6 C    3.951 --     9 C    1.348     4 C    1.255     7 N    1.148
     9   6 C    3.987 --     1 C    1.484     8 C    1.348    40 H    0.969
                             3 C    0.116
    10   6 C    3.968 --     6 C    0.996    21 C    0.963    11 N    0.956
                            46 H    0.946
    11   7 N    3.473 --    12 C    1.244    18 C    0.972    10 C    0.956
                            13 O    0.195
    12   6 C    3.959 --    13 O    1.676    11 N    1.244    14 C    0.965
    13   8 O    2.000 --    12 C    1.676    11 N    0.195
    14   6 C    3.973 --    15 N    0.998    12 C    0.965    36 H    0.951
                            35 H    0.943
    15   7 N    3.500 --    16 C    1.257    14 C    0.998    20 C    0.990
                            17 O    0.199
    16   6 C    3.958 --    17 O    1.667    15 N    1.257    18 C    0.946
    17   8 O    1.998 --    16 C    1.667    15 N    0.199
    18   6 C    3.968 --    19 C    0.980    11 N    0.972    16 C    0.946
                            47 H    0.937
    19   6 C    3.989 --     5 C    1.015    18 C    0.980    38 H    0.966
                            37 H    0.960
    20   6 C    3.959 --    15 N    0.990    33 H    0.977    32 H    0.976
                            34 H    0.972
    21   6 C    3.980 --    22 C    1.439    29 C    1.383    10 C    0.963
    22   6 C    3.986 --    21 C    1.439    23 C    1.398    42 H    0.966
    23   6 C    3.984 --    24 C    1.431    22 C    1.398    43 H    0.966
    24   6 C    3.923 --    23 C    1.431    28 C    1.294    25 O    1.009
    25   8 O    2.191 --    24 C    1.009    26 C    0.995
    26   6 C    3.920 --    25 O    0.995    31 H    0.967    30 H    0.960
                            27 O    0.957
    27   8 O    2.188 --    28 C    1.039    26 C    0.957
    28   6 C    3.932 --    29 C    1.418    24 C    1.294    27 O    1.039
    29   6 C    3.984 --    28 C    1.418    21 C    1.383    44 H    0.964
    30   1 H    0.999 --    26 C    0.960
    31   1 H    0.995 --    26 C    0.967
    32   1 H    0.997 --    20 C    0.976
    33   1 H    0.997 --    20 C    0.977
    34   1 H    0.991 --    20 C    0.972
    35   1 H    0.995 --    14 C    0.943
    36   1 H    0.994 --    14 C    0.951
    37   1 H    0.997 --    19 C    0.960
    38   1 H    0.994 --    19 C    0.966
    39   1 H    0.974 --     7 N    0.945
    40   1 H    0.999 --     9 C    0.969
    41   1 H    0.999 --     1 C    0.972
    42   1 H    0.996 --    22 C    0.966
    43   1 H    0.996 --    23 C    0.966
    44   1 H    0.996 --    29 C    0.964
    45   1 H    0.999 --     2 C    0.971
    46   1 H    0.994 --    10 C    0.946
    47   1 H    0.997 --    18 C    0.937
    48   1 H    0.998 --     3 C    0.970
 ---------------------------------------------------------------------------

Topologies differ in total number of bonds
Writing topology from bond orders to xtbtopo.mol

molecular dipole:
                 x           y           z       tot (Debye)
 q only:        0.062      -0.565      -0.135
   full:        0.274      -0.892      -0.244       2.451
molecular quadrupole (traceless):
                xx          xy          yy          xz          yz          zz
 q only:       54.831     -65.972     -81.622      -3.498     -43.054      26.790
  q+dip:      117.131     -87.137    -140.839      -8.972     -67.239      23.707
   full:      118.560     -85.190    -141.294      -8.909     -68.786      22.733


           -------------------------------------------------
          | TOTAL ENERGY              -81.913768046095 Eh   |
          | GRADIENT NORM               0.061153395227 Eh/α |
          | HOMO-LUMO GAP               3.392234799934 eV   |
           -------------------------------------------------

------------------------------------------------------------------------
 * finished run on 2023/12/24 at 02:46:33.811     
------------------------------------------------------------------------
 total:
 * wall-time:     0 d,  0 h,  0 min,  2.016 sec
 *  cpu-time:     0 d,  0 h,  0 min, 19.969 sec
 * ratio c/w:     9.903 speedup
 SCF:
 * wall-time:     0 d,  0 h,  0 min,  1.946 sec
 *  cpu-time:     0 d,  0 h,  0 min, 19.326 sec
 * ratio c/w:     9.934 speedup

