 Entering Gaussian System, Link 0=g16
 AtFile(1): /share/home/chem-zhonglh/yanzy/env/amber14_mod.prm
            !
            ! Non-bonded interaction
            !
            NonBon 3 1 0 0 0.000 0.000 0.500 0.000 0.000 -1.000
            !
            ! Stretches
            !
            HrmStr1 OW HW  553.0  0.9572
            HrmStr1 HW HW  553.0  1.5136
            HrmStr1 C  C   310.0  1.525
            HrmStr1 C  CA  469.0  1.409
            HrmStr1 C  CB  447.0  1.419
            HrmStr1 C  CM  410.0  1.444
            HrmStr1 C  CS  410.0  1.444
            HrmStr1 C  CT  317.0  1.522
            HrmStr1 C  CX  317.0  1.522
            HrmStr1 C  N   490.0  1.335
            HrmStr1 C  N*  424.0  1.383
            HrmStr1 C  NA  418.0  1.388
            HrmStr1 C  NC  457.0  1.358
            HrmStr1 C  O   570.0  1.229
            HrmStr1 C  O2  656.0  1.250
            HrmStr1 C  OH  450.0  1.364
            HrmStr1 C  OS  450.0  1.323
            HrmStr1 C  H4  367.0  1.080
            HrmStr1 C  H5  367.0  1.080
            HrmStr1 CA CA  469.0  1.400
            HrmStr1 CA CB  469.0  1.404
            HrmStr1 CA CM  427.0  1.433
            HrmStr1 CA CS  427.0  1.433
            HrmStr1 CA CN  469.0  1.400
            HrmStr1 CA CT  317.0  1.510
            HrmStr1 CA HA  367.0  1.080
            HrmStr1 CA H4  367.0  1.080
            HrmStr1 CA N2  481.0  1.340
            HrmStr1 CA NA  427.0  1.381
            HrmStr1 CA NC  483.0  1.339
            HrmStr1 CA OH  450.0  1.364
            HrmStr1 CB CB  520.0  1.370
            HrmStr1 CB N*  436.0  1.374
            HrmStr1 CB NB  414.0  1.391
            HrmStr1 CB NC  461.0  1.354
            HrmStr1 CD HA  367.0  1.080
            HrmStr1 CD CD  469.0  1.400
            HrmStr1 CD CM  549.0  1.350
            HrmStr1 CD CS  549.0  1.350
            HrmStr1 CD CT  317.0  1.510
            HrmStr1 CK H5  367.0  1.080
            HrmStr1 CK N*  440.0  1.371
            HrmStr1 CK NB  529.0  1.304
            HrmStr1 CP H5  367.0  1.080
            HrmStr1 CP N*  440.0  1.371
            HrmStr1 CP NB  529.0  1.304
            HrmStr1 CM CM  549.0  1.350
            HrmStr1 CM CT  317.0  1.510
            HrmStr1 CM HA  367.0  1.080
            HrmStr1 CM H4  367.0  1.080
            HrmStr1 CM H5  367.0  1.080
            HrmStr1 CM N*  448.0  1.365
            HrmStr1 CM OS  480.0  1.240
            HrmStr1 CS CS  549.0  1.350
            HrmStr1 CS CT  317.0  1.510
            HrmStr1 CS HA  367.0  1.080
            HrmStr1 CS H4  367.0  1.080
            HrmStr1 CS H5  367.0  1.080
            HrmStr1 CS N*  448.0  1.365
            HrmStr1 CS OS  480.0  1.240
            HrmStr1 CQ H5  367.0  1.080
            HrmStr1 CQ NC  502.0  1.324
            HrmStr1 CT CT  310.0  1.526
            HrmStr1 CX CT  310.0  1.526
            HrmStr1 CT HC  340.0  1.090
            HrmStr1 CT H1  340.0  1.090
            HrmStr1 CX H1  340.0  1.090
            HrmStr1 CT H2  340.0  1.090
            HrmStr1 CT H3  340.0  1.090
            HrmStr1 CT HP  340.0  1.090
            HrmStr1 CX HP  340.0  1.090
            HrmStr1 CT N*  337.0  1.475
            HrmStr1 CT N2  337.0  1.463
            HrmStr1 CT OH  320.0  1.410
            HrmStr1 CT OS  320.0  1.410
            HrmStr1 C* HC  367.0  1.080
            HrmStr1 C* CB  388.0  1.459
            HrmStr1 C* CT  317.0  1.495
            HrmStr1 C* CW  546.0  1.352
            HrmStr1 CB CN  447.0  1.419
            HrmStr1 CC CT  317.0  1.504
            HrmStr1 CC CV  512.0  1.375
            HrmStr1 CC CW  518.0  1.371
            HrmStr1 CC NA  422.0  1.385
            HrmStr1 CC NB  410.0  1.394
            HrmStr1 CN NA  428.0  1.380
            HrmStr1 CR H5  367.0  1.080
            HrmStr1 CR NA  477.0  1.343
            HrmStr1 CR NB  488.0  1.335
            HrmStr1 CT N   337.0  1.449
            HrmStr1 CX N   337.0  1.449
            HrmStr1 CT N3  367.0  1.471
            HrmStr1 CX N3  367.0  1.471
            HrmStr1 CT NT  367.0  1.471
            HrmStr1 CT S   227.0  1.810
            HrmStr1 CT SH  237.0  1.810
            HrmStr1 CT CY  400.0  1.458
            HrmStr1 CT CZ  400.0  1.459
            HrmStr1 CV H4  367.0  1.080
            HrmStr1 CV NB  410.0  1.394
            HrmStr1 CW H4  367.0  1.080
            HrmStr1 CW NA  427.0  1.381
            HrmStr1 CY NY  600.0  1.150
            HrmStr1 CZ CZ  600.0  1.206
            HrmStr1 CZ HZ  400.0  1.056
            HrmStr1 OP P   525.0  1.480
            HrmStr1 O2 P   525.0  1.480
            HrmStr1 OH P   230.0  1.610
            HrmStr1 OS P   230.0  1.610
            HrmStr1 NA P   250.0  1.840
            HrmStr1 H  N2  434.0  1.010
            HrmStr1 H  N*  434.0  1.010
            HrmStr1 H  NA  434.0  1.010
            HrmStr1 H  N   434.0  1.010
            HrmStr1 H  N3  434.0  1.010
            HrmStr1 H  NT  434.0  1.010
            HrmStr1 HO OH  553.0  0.960
            HrmStr1 HO OS  553.0  0.960
            HrmStr1 HS SH  274.0  1.336
            HrmStr1 S  S   166.0  2.038
            HrmStr1 F  CT  367.0  1.380
            HrmStr1 Cl CT  232.0  1.766
            HrmStr1 Br CT  159.0  1.944
            HrmStr1 I  CT  148.0  2.166
            HrmStr1 F  CA  386.0  1.359
            HrmStr1 Cl CA  193.0  1.727
            HrmStr1 I  CA  171.0  2.075
            HrmStr1 Br CA  172.0  1.890
            HrmStr1 EP O   600.0  0.200
            HrmStr1 EP OH  600.0  0.200
            HrmStr1 EP OS  600.0  0.200
            HrmStr1 EP N3  600.0  0.200
            HrmStr1 EP NT  600.0  0.200
            HrmStr1 EP NB  600.0  0.200
            HrmStr1 EP NC  600.0  0.200
            HrmStr1 EP S   600.0  0.700
            HrmStr1 EP SH  600.0  0.700
            HrmStr1 CI H1  340.0  1.090
            HrmStr1 CI CT  310.0  1.526
            HrmStr1 OS CI  320.0  1.410
            HrmStr1 OH CI  320.0  1.410
            HrmStr1 C5 H5  367.0  1.080
            HrmStr1 C5 N*  440.0  1.371
            HrmStr1 C5 NB  529.0  1.304
            HrmStr1 C  C4  410.0  1.444
            HrmStr1 CA C4  427.0  1.433
            HrmStr1 C4 C4  549.0  1.350
            HrmStr1 C4 CT  317.0  1.510
            HrmStr1 C4 HA  367.0  1.080
            HrmStr1 C4 H4  367.0  1.080
            HrmStr1 C4 N*  448.0  1.365
            HrmStr1 C8 C8  310.0  1.5260
            HrmStr1 C8 CX  310.0  1.5260
            HrmStr1 C8 H1  340.0  1.0900
            HrmStr1 C8 HC  340.0  1.0900
            HrmStr1 C8 HP  340.0  1.0900
            HrmStr1 C8 N2  337.0  1.4630
            HrmStr1 C8 N3  367.0  1.4710
            HrmStr1 CO O2  656.0  1.2500
            !
            ! Angles
            !
            HrmBnd1 HW OW HW    100.   104.52
            HrmBnd1 HW HW OW      0.   127.74
            HrmBnd1 C  C  O     80.0   120.00
            HrmBnd1 C  C  OH    80.0   120.00
            HrmBnd1 CA C  CA    63.0   120.00
            HrmBnd1 CA C  OH    70.0   120.00
            HrmBnd1 CA C  OS    70.0   120.00
            HrmBnd1 CC NA P     76.7   125.10
            HrmBnd1 CR NA P     76.7   125.10
            HrmBnd1 NA P  OP    42.9   102.38
            HrmBnd1 CB C  NA    70.0   111.30
            HrmBnd1 CB C  O     80.0   128.80
            HrmBnd1 CM C  NA    70.0   114.10
            HrmBnd1 CM C  O     80.0   125.30
            HrmBnd1 CS C  NA    70.0   114.10
            HrmBnd1 CS C  O     80.0   125.30
            HrmBnd1 CT C  O     80.0   120.40
            HrmBnd1 CX C  O     80.0   120.40
            HrmBnd1 CT C  O2    70.0   117.00
            HrmBnd1 CX C  O2    70.0   117.00
            HrmBnd1 CT C  N     70.0   116.60
            HrmBnd1 CX C  N     70.0   116.60
            HrmBnd1 CT C  CT    63.0   117.00
            HrmBnd1 CT C  OS    80.0   115.00
            HrmBnd1 CT C  OH    80.0   110.00
            HrmBnd1 CX C  OH    80.0   110.00
            HrmBnd1 N* C  NA    70.0   115.40
            HrmBnd1 N* C  NC    70.0   118.60
            HrmBnd1 N* C  O     80.0   120.90
            HrmBnd1 NA C  O     80.0   120.60
            HrmBnd1 NC C  O     80.0   122.50
            HrmBnd1 N  C  O     80.0   122.90
            HrmBnd1 O  C  O     80.0   126.00
            HrmBnd1 O  C  OH    80.0   120.00
            HrmBnd1 O  C  OS    80.0   125.00
            HrmBnd1 O2 C  O2    80.0   126.00
            HrmBnd1 H4 C  C     50.0   120.00
            HrmBnd1 H4 C  CM    50.0   115.00
            HrmBnd1 H4 C  CS    50.0   115.00
            HrmBnd1 H4 C  CT    50.0   115.00
            HrmBnd1 H4 C  O     50.0   120.00
            HrmBnd1 H4 C  OH    50.0   120.00
            HrmBnd1 H5 C  N     50.0   120.00
            HrmBnd1 H5 C  O     50.0   119.00
            HrmBnd1 H5 C  OH    50.0   107.00
            HrmBnd1 H5 C  OS    50.0   107.00
            HrmBnd1 C  CA CA    63.0   120.00
            HrmBnd1 C  CA HA    50.0   120.00
            HrmBnd1 CA CA CA    63.0   120.00
            HrmBnd1 CA CA CB    63.0   120.00
            HrmBnd1 CA CA CT    70.0   120.00
            HrmBnd1 CA CA HA    50.0   120.00
            HrmBnd1 CA CA H4    50.0   120.00
            HrmBnd1 CA CA OH    70.0   120.00
            HrmBnd1 CA CA CN    63.0   120.00
            HrmBnd1 CB CA HA    50.0   120.00
            HrmBnd1 CB CA H4    50.0   120.00
            HrmBnd1 CB CA N2    70.0   123.50
            HrmBnd1 CB CA NC    70.0   117.30
            HrmBnd1 CM CA N2    70.0   120.10
            HrmBnd1 CM CA NC    70.0   121.50
            HrmBnd1 CS CA N2    70.0   120.10
            HrmBnd1 CS CA NC    70.0   121.50
            HrmBnd1 CN CA HA    50.0   120.00
            HrmBnd1 NA CA NC    70.0   123.30
            HrmBnd1 N2 CA NA    70.0   116.00
            HrmBnd1 N2 CA NC    70.0   119.30
            HrmBnd1 N2 CA N2    70.0   120.00
            HrmBnd1 F  CA CA    70.0   121.00
            HrmBnd1 Cl CA CA    70.0   118.80
            HrmBnd1 Br CA CA    70.0   118.80
            HrmBnd1 I  CA CA    70.0   118.80
            HrmBnd1 C  CB CB    63.0   119.20
            HrmBnd1 C  CB NB    70.0   130.00
            HrmBnd1 CA CB CB    63.0   117.30
            HrmBnd1 CA CB NB    70.0   132.40
            HrmBnd1 CB CB N*    70.0   106.20
            HrmBnd1 CB CB NB    70.0   110.40
            HrmBnd1 CB CB NC    70.0   127.70
            HrmBnd1 C* CB CA    63.0   134.90
            HrmBnd1 C* CB CN    63.0   108.80
            HrmBnd1 CA CB CN    63.0   116.20
            HrmBnd1 N* CB NC    70.0   126.20
            HrmBnd1 CD CD CM    63.0   120.00
            HrmBnd1 CD CD CS    63.0   120.00
            HrmBnd1 CD CD CT    70.0   120.00
            HrmBnd1 CM CD CT    70.0   120.00
            HrmBnd1 CS CD CT    70.0   120.00
            HrmBnd1 HA CD HA    35.0   119.00
            HrmBnd1 HA CD CD    50.0   120.00
            HrmBnd1 HA CD CM    50.0   120.00
            HrmBnd1 HA CD CS    50.0   120.00
            HrmBnd1 H5 CK N*    50.0   123.05
            HrmBnd1 H5 CK NB    50.0   123.05
            HrmBnd1 N* CK NB    70.0   113.90
            HrmBnd1 H5 CP N*    50.0   123.05
            HrmBnd1 H5 CP NB    50.0   123.05
            HrmBnd1 N* CP NB    70.0   113.90
            HrmBnd1 C  CM CM    63.0   120.70
            HrmBnd1 C  CM CT    70.0   119.70
            HrmBnd1 C  CM HA    50.0   119.70
            HrmBnd1 C  CM H4    50.0   119.70
            HrmBnd1 CA CM CM    63.0   117.00
            HrmBnd1 CA CM HA    50.0   123.30
            HrmBnd1 CA CM H4    50.0   123.30
            HrmBnd1 CM CM CT    70.0   119.70
            HrmBnd1 CM CM HA    50.0   119.70
            HrmBnd1 CM CM H4    50.0   119.70
            HrmBnd1 CM CM N*    70.0   121.20
            HrmBnd1 CM CM OS    80.0   125.00
            HrmBnd1 H4 CM N*    50.0   119.10
            HrmBnd1 H4 CM OS    50.0   113.00
            HrmBnd1 HA CM HA    35.0   120.00
            HrmBnd1 HA CM CD    50.0   120.00
            HrmBnd1 HA CM CT    50.0   120.00
            HrmBnd1 C  CS CS    63.0   120.70
            HrmBnd1 C  CS CT    70.0   119.70
            HrmBnd1 C  CS HA    50.0   119.70
            HrmBnd1 C  CS H4    50.0   119.70
            HrmBnd1 CA CS CS    63.0   117.00
            HrmBnd1 CA CS HA    50.0   123.30
            HrmBnd1 CA CS H4    50.0   123.30
            HrmBnd1 CM CS CT    70.0   119.70
            HrmBnd1 CS CS HA    50.0   119.70
            HrmBnd1 CS CS H4    50.0   119.70
            HrmBnd1 CS CS N*    70.0   121.20
            HrmBnd1 CS CS OS    80.0   125.00
            HrmBnd1 H4 CS N*    50.0   119.10
            HrmBnd1 H4 CS OS    50.0   113.00
            HrmBnd1 HA CS HA    35.0   120.00
            HrmBnd1 HA CS CD    50.0   120.00
            HrmBnd1 HA CS CT    50.0   120.00
            HrmBnd1 NC CQ NC    70.0   129.10
            HrmBnd1 H5 CQ NC    50.0   115.45
            HrmBnd1 H1 CT H1    35.0   109.50
            HrmBnd1 H1 CX H1    35.0   109.50
            HrmBnd1 H1 CT N*    50.0   109.50
            HrmBnd1 H1 CT OH    50.0   109.50
            HrmBnd1 H1 CT OS    50.0   109.50
            HrmBnd1 H1 CT CM    50.0   109.50
            HrmBnd1 H1 CT CS    50.0   109.50
            HrmBnd1 H1 CT CY    50.0   110.00
            HrmBnd1 H1 CT CZ    50.0   110.00
            HrmBnd1 H1 CT N     50.0   109.50
            HrmBnd1 H1 CX N     50.0   109.50
            HrmBnd1 H1 CT S     50.0   109.50
            HrmBnd1 H1 CT SH    50.0   109.50
            HrmBnd1 H1 CT N2    50.0   109.50
            HrmBnd1 H1 CT NT    50.0   109.50
            HrmBnd1 H2 CT H2    35.0   109.50
            HrmBnd1 H2 CT N*    50.0   109.50
            HrmBnd1 H2 CT OS    50.0   109.50
            HrmBnd1 HP CT HP    35.0   109.50
            HrmBnd1 HP CX HP    35.0   109.50
            HrmBnd1 HP CT N3    50.0   109.50
            HrmBnd1 HP CX N3    50.0   109.50
            HrmBnd1 HC CT HC    35.0   109.50
            HrmBnd1 HC CT CM    50.0   109.50
            HrmBnd1 HC CT CS    50.0   109.50
            HrmBnd1 HC CT CD    50.0   109.50
            HrmBnd1 HC CT CZ    50.0   110.00
            HrmBnd1 C  CT H1    50.0   109.50
            HrmBnd1 C  CX H1    50.0   109.50
            HrmBnd1 C  CT HP    50.0   109.50
            HrmBnd1 C  CX HP    50.0   109.50
            HrmBnd1 C  CT HC    50.0   109.50
            HrmBnd1 C  CT N     63.0   110.10
            HrmBnd1 C  CX N     63.0   110.10
            HrmBnd1 C  CT N3    80.0   111.20
            HrmBnd1 C  CX N3    80.0   111.20
            HrmBnd1 C  CT CT    63.0   111.10
            HrmBnd1 C  CT CX    63.0   111.10
            HrmBnd1 C  CX CT    63.0   111.10
            HrmBnd1 C  CT OS    60.0   109.50
            HrmBnd1 CA CT HC    50.0   109.50
            HrmBnd1 CC CT CT    63.0   113.10
            HrmBnd1 CC CT CX    63.0   113.10
            HrmBnd1 CC CT HC    50.0   109.50
            HrmBnd1 CM CT CT    63.0   111.00
            HrmBnd1 CM CT OS    50.0   109.50
            HrmBnd1 CS CT CT    63.0   111.00
            HrmBnd1 CS CT OS    50.0   109.50
            HrmBnd1 CT CT CT    40.0   109.50
            HrmBnd1 CT CT CX    40.0   109.50
            HrmBnd1 CT CT HC    50.0   109.50
            HrmBnd1 CX CT HC    50.0   109.50
            HrmBnd1 CT CT H1    50.0   109.50
            HrmBnd1 CT CX H1    50.0   109.50
            HrmBnd1 CX CT H1    50.0   109.50
            HrmBnd1 CT CT H2    50.0   109.50
            HrmBnd1 CT CT HP    50.0   109.50
            HrmBnd1 CT CX HP    50.0   109.50
            HrmBnd1 CT CT N*    50.0   109.50
            HrmBnd1 CT CT OH    50.0   109.50
            HrmBnd1 CX CT OH    50.0   109.50
            HrmBnd1 CT CT OS    50.0   109.50
            HrmBnd1 CT CT S     50.0   114.70
            HrmBnd1 CX CT S     50.0   114.70
            HrmBnd1 CT CT SH    50.0   108.60
            HrmBnd1 CX CT SH    50.0   108.60
            HrmBnd1 CT CT CA    63.0   114.00
            HrmBnd1 CX CT CA    63.0   114.00
            HrmBnd1 CT CT N2    80.0   111.20
            HrmBnd1 CT CT N     80.0   109.70
            HrmBnd1 CT CX N     80.0   109.70
            HrmBnd1 CT CT N3    80.0   111.20
            HrmBnd1 CT CX N3    80.0   111.20
            HrmBnd1 CT CT NT    80.0   111.20
            HrmBnd1 CT CT CY    63.0   110.00
            HrmBnd1 CT CT CZ    63.0   110.00
            HrmBnd1 C* CT CT    63.0   115.60
            HrmBnd1 C* CT CX    63.0   115.60
            HrmBnd1 C* CT HC    50.0   109.50
            HrmBnd1 OS CT OS   160.0   101.00
            HrmBnd1 OS CT CY    50.0   110.00
            HrmBnd1 OS CT CZ    50.0   110.00
            HrmBnd1 OS CT N*    50.0   109.50
            HrmBnd1 F  CT F     77.0   109.10
            HrmBnd1 F  CT H1    50.0   109.50
            HrmBnd1 F  CT CT    50.0   109.00
            HrmBnd1 F  CT H2    50.0   109.50
            HrmBnd1 Cl CT CT    50.0   108.50
            HrmBnd1 Cl CT H1    50.0   108.50
            HrmBnd1 Br CT CT    50.0   108.00
            HrmBnd1 Br CT H1    50.0   106.50
            HrmBnd1 I  CT CT    50.0   106.00
            HrmBnd1 CT CC NA    70.0   120.00
            HrmBnd1 CT CC CV    70.0   120.00
            HrmBnd1 CT CC NB    70.0   120.00
            HrmBnd1 CV CC NA    70.0   120.00
            HrmBnd1 CW CC NA    70.0   120.00
            HrmBnd1 CW CC NB    70.0   120.00
            HrmBnd1 CT CC CW    70.0   120.00
            HrmBnd1 H5 CR NA    50.0   120.00
            HrmBnd1 H5 CR NB    50.0   120.00
            HrmBnd1 NA CR NA    70.0   120.00
            HrmBnd1 NA CR NB    70.0   120.00
            HrmBnd1 CC CV H4    50.0   120.00
            HrmBnd1 CC CV NB    70.0   120.00
            HrmBnd1 H4 CV NB    50.0   120.00
            HrmBnd1 CC CW H4    50.0   120.00
            HrmBnd1 CC CW NA    70.0   120.00
            HrmBnd1 C* CW H4    50.0   120.00
            HrmBnd1 C* CW NA    70.0   108.70
            HrmBnd1 H4 CW NA    50.0   120.00
            HrmBnd1 CB C* CT    70.0   128.60
            HrmBnd1 CB C* CW    63.0   106.40
            HrmBnd1 CT C* CW    70.0   125.00
            HrmBnd1 CA CN CB    63.0   122.70
            HrmBnd1 CA CN NA    70.0   132.80
            HrmBnd1 CB CN NA    70.0   104.40
            HrmBnd1 CT CY NY    80.0   180.00
            HrmBnd1 CT CZ CZ    80.0   180.00
            HrmBnd1 CZ CZ HZ    50.0   180.00
            HrmBnd1 C  N  CT    50.0   121.90
            HrmBnd1 C  N  CX    50.0   121.90
            HrmBnd1 C  N  H     50.0   120.00
            HrmBnd1 CT N  H     50.0   118.04
            HrmBnd1 CX N  H     50.0   118.04
            HrmBnd1 CT N  CT    50.0   118.00
            HrmBnd1 CT N  CX    50.0   118.00
            HrmBnd1 H  N  H     35.0   120.00
            HrmBnd1 C  N* CM    70.0   121.60
            HrmBnd1 C  N* CS    70.0   121.60
            HrmBnd1 C  N* CT    70.0   117.60
            HrmBnd1 C  N* H     50.0   119.20
            HrmBnd1 CB N* CK    70.0   105.40
            HrmBnd1 CB N* CP    70.0   105.40
            HrmBnd1 CB N* CT    70.0   125.80
            HrmBnd1 CB N* H     50.0   125.80
            HrmBnd1 CK N* CT    70.0   128.80
            HrmBnd1 CK N* H     50.0   128.80
            HrmBnd1 CP N* CT    70.0   128.80
            HrmBnd1 CP N* H     50.0   128.80
            HrmBnd1 CM N* CT    70.0   121.20
            HrmBnd1 CM N* H     50.0   121.20
            HrmBnd1 CS N* CT    70.0   121.20
            HrmBnd1 CS N* H     50.0   121.20
            HrmBnd1 CA N2 H     50.0   120.00
            HrmBnd1 CA N2 CT    50.0   123.20
            HrmBnd1 CT N2 H     50.0   118.40
            HrmBnd1 H  N2 H     35.0   120.00
            HrmBnd1 CT N3 H     50.0   109.50
            HrmBnd1 CX N3 H     50.0   109.50
            HrmBnd1 CT N3 CT    50.0   109.50
            HrmBnd1 CT N3 CX    50.0   109.50
            HrmBnd1 H  N3 H     35.0   109.50
            HrmBnd1 CT NT H     50.0   109.50
            HrmBnd1 CT NT CT    50.0   109.50
            HrmBnd1 H  NT H     35.0   109.50
            HrmBnd1 C  NA C     70.0   126.40
            HrmBnd1 C  NA CA    70.0   125.20
            HrmBnd1 C  NA H     50.0   116.80
            HrmBnd1 CA NA H     50.0   118.00
            HrmBnd1 CC NA CR    70.0   120.00
            HrmBnd1 CC NA H     50.0   120.00
            HrmBnd1 CR NA CW    70.0   120.00
            HrmBnd1 CR NA H     50.0   120.00
            HrmBnd1 CW NA H     50.0   120.00
            HrmBnd1 CN NA CW    70.0   111.60
            HrmBnd1 CN NA H     50.0   123.10
            HrmBnd1 CB NB CK    70.0   103.80
            HrmBnd1 CB NB CP    70.0   103.80
            HrmBnd1 CC NB CR    70.0   117.00
            HrmBnd1 CR NB CV    70.0   117.00
            HrmBnd1 C  NC CA    70.0   120.50
            HrmBnd1 CA NC CB    70.0   112.20
            HrmBnd1 CA NC CQ    70.0   118.60
            HrmBnd1 CB NC CQ    70.0   111.00
            HrmBnd1 C  OH HO    50.0   113.00
            HrmBnd1 CA OH HO    50.0   113.00
            HrmBnd1 CT OH HO    55.0   108.50
            HrmBnd1 HO OH P     45.0   108.50
            HrmBnd1 C  OS CT    60.0   117.00
            HrmBnd1 CM OS CT    60.0   117.00
            HrmBnd1 CS OS CT    60.0   117.00
            HrmBnd1 CT OS CT    60.0   109.50
            HrmBnd1 CT OS P    100.0   120.50
            HrmBnd1 C  OS P    100.0   120.50
            HrmBnd1 P  OS P    100.0   120.50
            HrmBnd1 O2 P  OH    45.0   108.23
            HrmBnd1 O2 P  O2   140.0   119.90
            HrmBnd1 OP P  OP   140.0   119.90
            HrmBnd1 OP P  OS   100.0   108.23
            HrmBnd1 O2 P  OS   100.0   108.23
            HrmBnd1 OH P  OS    45.0   102.60
            HrmBnd1 OS P  OS    45.0   102.60
            HrmBnd1 CT S  CT    62.0    98.90
            HrmBnd1 CT S  S     68.0   103.70
            HrmBnd1 CT SH HS    43.0    96.00
            HrmBnd1 HS SH HS    35.0    92.07
            HrmBnd1 CB NB EP   150.0   126.00
            HrmBnd1 CC NB EP   150.0   126.00
            HrmBnd1 CK NB EP   150.0   126.00
            HrmBnd1 CP NB EP   150.0   126.00
            HrmBnd1 CR NB EP   150.0   126.00
            HrmBnd1 CV NB EP   150.0   126.00
            HrmBnd1 C  NC EP   150.0   120.00
            HrmBnd1 CA NC EP   150.0   120.00
            HrmBnd1 CB NC EP   150.0   120.00
            HrmBnd1 CQ NC EP   150.0   120.00
            HrmBnd1 CT N3 EP   150.0   109.50
            HrmBnd1 H  N3 EP   150.0   109.50
            HrmBnd1 CT NT EP   150.0   109.50
            HrmBnd1 H  NT EP   150.0   109.50
            HrmBnd1 C  O  EP   150.0   120.00
            HrmBnd1 EP O  EP   150.0   120.00
            HrmBnd1 C  OH EP   150.0   120.00
            HrmBnd1 CT OH EP   150.0   109.50
            HrmBnd1 HO OH EP   150.0   109.50
            HrmBnd1 EP OH EP   150.0   109.50
            HrmBnd1 C  OS EP   150.0   109.50
            HrmBnd1 CM OS EP   150.0   109.50
            HrmBnd1 CS OS EP   150.0   109.50
            HrmBnd1 CT OS EP   150.0   109.50
            HrmBnd1 EP OS EP   150.0   109.50
            HrmBnd1 CT S  EP   150.0    90.00
            HrmBnd1 CT SH EP   150.0    90.00
            HrmBnd1 P  OS EP   150.0   109.50
            HrmBnd1 EP S  EP   150.0   180.00
            HrmBnd1 EP SH EP   150.0   180.00
            HrmBnd1 HS SH EP   150.0    90.00
            HrmBnd1 H1 CI CT    50.0   109.50
            HrmBnd1 H1 CI H1    35.0   109.50
            HrmBnd1 CI CT H1    50.0   109.50
            HrmBnd1 CI CT OS    50.0   109.50
            HrmBnd1 CI CT CT    40.0   109.50
            HrmBnd1 OS CI H1    50.0   109.50
            HrmBnd1 OS CI CT    50.0   109.50
            HrmBnd1 P  OS CI   100.0   120.50
            HrmBnd1 OH CI H1    50.0   109.50
            HrmBnd1 OH CI CT    50.0   109.50
            HrmBnd1 HO OH CI    55.0   108.50
            HrmBnd1 H5 C5 N*    50.0   123.05
            HrmBnd1 H5 C5 NB    50.0   123.05
            HrmBnd1 N* C5 NB    70.0   113.90
            HrmBnd1 CB N* C5    70.0   105.40
            HrmBnd1 C5 N* CT    70.0   128.80
            HrmBnd1 CB NB C5    70.0   103.80
            HrmBnd1 C4 C  NA    70.0   114.10
            HrmBnd1 C4 C  O     80.0   125.30
            HrmBnd1 C4 CA N2    70.0   120.10
            HrmBnd1 C4 CA NC    70.0   121.50
            HrmBnd1 C  C4 C4    63.0   120.70
            HrmBnd1 C  C4 CT    70.0   119.70
            HrmBnd1 C  C4 HA    50.0   119.70
            HrmBnd1 C  C4 H4    50.0   119.70
            HrmBnd1 CA C4 C4    63.0   117.00
            HrmBnd1 CA C4 HA    50.0   123.30
            HrmBnd1 CA C4 H4    50.0   123.30
            HrmBnd1 C4 C4 CT    70.0   119.70
            HrmBnd1 C4 C4 HA    50.0   119.70
            HrmBnd1 C4 C4 H4    50.0   119.70
            HrmBnd1 C4 C4 N*    70.0   121.20
            HrmBnd1 H4 C4 N*    50.0   119.10
            HrmBnd1 H1 CT C4    50.0   109.50
            HrmBnd1 HC CT C4    50.0   109.50
            HrmBnd1 C  N* C4    70.0   121.60
            HrmBnd1 C4 N* CT    70.0   121.20
            HrmBnd1 EP S  S    150.0    96.70
            HrmBnd1 C8 C8 C8    40.0   109.50
            HrmBnd1 C8 C8 CX    40.0   109.50
            HrmBnd1 C8 C8 H1    50.0   109.50
            HrmBnd1 C8 C8 HC    50.0   109.50
            HrmBnd1 C8 C8 HP    50.0   109.50
            HrmBnd1 C8 C8 N2    80.0   111.20
            HrmBnd1 C8 C8 N3    80.0   111.20
            HrmBnd1 CX C8 HC    50.0   109.50
            HrmBnd1 H1 C8 H1    35.0   109.50
            HrmBnd1 H1 C8 N2    50.0   109.50
            HrmBnd1 HC C8 HC    35.0   109.50
            HrmBnd1 HP C8 HP    35.0   109.50
            HrmBnd1 HP C8 N3    50.0   109.50
            HrmBnd1 O2 CO O2    80.0   126.00
            HrmBnd1 C  CX C8    63.0   111.10
            HrmBnd1 C8 CX H1    50.0   109.50
            HrmBnd1 C8 CX N     80.0   109.70
            HrmBnd1 C8 CX N3    80.0   111.20
            HrmBnd1 HP CX C8    50.0   109.50
            HrmBnd1 C8 N2 CA    50.0   123.20
            HrmBnd1 C8 N2 H     50.0   118.40
            HrmBnd1 C8 N3 H     50.0   109.50
            !
            ! Torsions
            !
            AmbTrs *  C  C  *    0 180   0   0  0.000 14.500  0.000  0.000 4.0
            AmbTrs *  C  CA *    0 180   0   0  0.000 14.500  0.000  0.000 4.0
            AmbTrs *  C  CB *    0 180   0   0  0.000 12.000  0.000  0.000 4.0
            AmbTrs *  C  CM *    0 180   0   0  0.000  8.700  0.000  0.000 4.0
            AmbTrs *  C  CS *    0 180   0   0  0.000  8.700  0.000  0.000 4.0
            AmbTrs *  C  CT *    0   0   0   0  0.000  0.000  0.000  0.000 6.0
            AmbTrs *  C  CX *    0   0   0   0  0.000  0.000  0.000  0.000 6.0
            AmbTrs *  C  N  *    0 180   0   0  0.000 10.000  0.000  0.000 4.0
            AmbTrs *  C  N* *    0 180   0   0  0.000  5.800  0.000  0.000 4.0
            AmbTrs *  C  NA *    0 180   0   0  0.000  5.400  0.000  0.000 4.0
            AmbTrs *  C  NC *    0 180   0   0  0.000  8.000  0.000  0.000 2.0
            AmbTrs *  C  O  *    0 180   0   0  0.000 11.200  0.000  0.000 4.0
            AmbTrs *  C  OH *    0 180   0   0  0.000  4.600  0.000  0.000 2.0
            AmbTrs *  C  OS *    0 180   0   0  0.000  5.400  0.000  0.000 2.0
            AmbTrs *  CA CA *    0 180   0   0  0.000 14.500  0.000  0.000 4.0
            AmbTrs *  CA CB *    0 180   0   0  0.000 14.000  0.000  0.000 4.0
            AmbTrs *  CA CM *    0 180   0   0  0.000 10.200  0.000  0.000 4.0
            AmbTrs *  CA CS *    0 180   0   0  0.000 10.200  0.000  0.000 4.0
            AmbTrs *  CA CN *    0 180   0   0  0.000 14.500  0.000  0.000 4.0
            AmbTrs *  CA CT *    0   0   0   0  0.000  0.000  0.000  0.000 6.0
            AmbTrs *  CA N2 *    0 180   0   0  0.000  9.600  0.000  0.000 4.0
            AmbTrs *  CA NA *    0 180   0   0  0.000  6.000  0.000  0.000 4.0
            AmbTrs *  CA NC *    0 180   0   0  0.000  9.600  0.000  0.000 2.0
            AmbTrs *  CA OH *    0 180   0   0  0.000  1.800  0.000  0.000 2.0
            AmbTrs *  CB CB *    0 180   0   0  0.000 21.800  0.000  0.000 4.0
            AmbTrs *  CB CN *    0 180   0   0  0.000 12.000  0.000  0.000 4.0
            AmbTrs *  CB N* *    0 180   0   0  0.000  6.600  0.000  0.000 4.0
            AmbTrs *  CB NB *    0 180   0   0  0.000  5.100  0.000  0.000 2.0
            AmbTrs *  CB NC *    0 180   0   0  0.000  8.300  0.000  0.000 2.0
            AmbTrs *  CC CT *    0   0   0   0  0.000  0.000  0.000  0.000 6.0
            AmbTrs *  CC CV *    0 180   0   0  0.000 20.600  0.000  0.000 4.0
            AmbTrs *  CC CW *    0 180   0   0  0.000 21.500  0.000  0.000 4.0
            AmbTrs *  CC NA *    0 180   0   0  0.000  5.600  0.000  0.000 4.0
            AmbTrs *  CC NB *    0 180   0   0  0.000  4.800  0.000  0.000 2.0
            AmbTrs *  CD CD *    0 180   0   0  0.000  4.000  0.000  0.000 4.0
            AmbTrs *  CD CT *    0   0   0   0  0.000  0.000  0.000  0.000 6.0
            AmbTrs *  CD CM *    0 180   0   0  0.000 26.600  0.000  0.000 4.0
            AmbTrs *  CD CS *    0 180   0   0  0.000 26.600  0.000  0.000 4.0
            AmbTrs *  CK N* *    0 180   0   0  0.000  6.800  0.000  0.000 4.0
            AmbTrs *  CK NB *    0 180   0   0  0.000 20.000  0.000  0.000 2.0
            AmbTrs *  CP N* *    0 180   0   0  0.000  6.800  0.000  0.000 4.0
            AmbTrs *  CP NB *    0 180   0   0  0.000 20.000  0.000  0.000 2.0
            AmbTrs *  CM CM *    0 180   0   0  0.000 26.600  0.000  0.000 4.0
            AmbTrs *  CM CT *    0   0   0   0  0.000  0.000  0.000  0.000 6.0
            AmbTrs *  CM N* *    0 180   0   0  0.000  7.400  0.000  0.000 4.0
            AmbTrs *  CM OS *    0 180   0   0  0.000  2.100  0.000  0.000 2.0
            AmbTrs *  CS CS *    0 180   0   0  0.000 26.600  0.000  0.000 4.0
            AmbTrs *  CS CT *    0   0   0   0  0.000  0.000  0.000  0.000 6.0
            AmbTrs *  CS N* *    0 180   0   0  0.000  7.400  0.000  0.000 4.0
            AmbTrs *  CS OS *    0 180   0   0  0.000  2.100  0.000  0.000 2.0
            AmbTrs *  CN NA *    0 180   0   0  0.000  6.100  0.000  0.000 4.0
            AmbTrs *  CQ NC *    0 180   0   0  0.000 13.600  0.000  0.000 2.0
            AmbTrs *  CT CT *    0   0   0   0  0.000  0.000  1.400  0.000 9.0
            AmbTrs *  CT CX *    0   0   0   0  0.000  0.000  1.400  0.000 9.0
            AmbTrs *  CT CY *    0   0   0   0  0.000  0.000  0.000  0.000 3.0
            AmbTrs *  CT CZ *    0   0   0   0  0.000  0.000  0.000  0.000 3.0
            AmbTrs *  CT N  *    0   0   0   0  0.000  0.000  0.000  0.000 6.0
            AmbTrs *  CX N  *    0   0   0   0  0.000  0.000  0.000  0.000 6.0
            AmbTrs *  CT N* *    0   0   0   0  0.000  0.000  0.000  0.000 6.0
            AmbTrs *  CT N2 *    0   0   0   0  0.000  0.000  0.000  0.000 6.0
            AmbTrs *  CT NT *    0   0   0   0  0.000  0.000  1.800  0.000 6.0
            AmbTrs *  CT N3 *    0   0   0   0  0.000  0.000  1.400  0.000 9.0
            AmbTrs *  CX N3 *    0   0   0   0  0.000  0.000  1.400  0.000 9.0
            AmbTrs *  CT OH *    0   0   0   0  0.000  0.000  0.500  0.000 3.0
            AmbTrs *  CT OS *    0   0   0   0  0.000  0.000  1.150  0.000 3.0
            AmbTrs *  CT S  *    0   0   0   0  0.000  0.000  1.000  0.000 3.0
            AmbTrs *  CT SH *    0   0   0   0  0.000  0.000  0.750  0.000 3.0
            AmbTrs *  C* CB *    0 180   0   0  0.000  6.700  0.000  0.000 4.0
            AmbTrs *  C* CT *    0   0   0   0  0.000  0.000  0.000  0.000 6.0
            AmbTrs *  C* CW *    0 180   0   0  0.000 26.100  0.000  0.000 4.0
            AmbTrs *  CR NA *    0 180   0   0  0.000  9.300  0.000  0.000 4.0
            AmbTrs *  CR NB *    0 180   0   0  0.000 10.000  0.000  0.000 2.0
            AmbTrs *  CV NB *    0 180   0   0  0.000  4.800  0.000  0.000 2.0
            AmbTrs *  CW NA *    0 180   0   0  0.000  6.000  0.000  0.000 4.0
            AmbTrs *  OH P  *    0   0   0   0  0.000  0.000  0.750  0.000 3.0
            AmbTrs *  OS P  *    0   0   0   0  0.000  0.000  0.750  0.000 3.0
            AmbTrs *  CI OS *    0   0   0   0  0.000  0.000  1.150  0.000 3.0
            AmbTrs *  CI OH *    0   0   0   0  0.000  0.000  0.500  0.000 3.0
            AmbTrs *  CI CT *    0   0   0   0  0.000  0.000  1.400  0.000 9.0
            AmbTrs *  C5 N* *    0 180   0   0  0.000  6.800  0.000  0.000 4.0
            AmbTrs *  C5 NB *    0 180   0   0  0.000 20.000  0.000  0.000 2.0
            AmbTrs *  C  C4 *    0 180   0   0  0.000  8.700  0.000  0.000 4.0
            AmbTrs *  CA C4 *    0 180   0   0  0.000 10.200  0.000  0.000 4.0
            AmbTrs *  C4 C4 *    0 180   0   0  0.000 26.600  0.000  0.000 4.0
            AmbTrs *  C4 CT *    0   0   0   0  0.000  0.000  0.000  0.000 6.0
            AmbTrs *  C4 N* *    0 180   0   0  0.000  7.400  0.000  0.000 4.0
            AmbTrs CT OS CT CI   0 180   0   0  0.000  0.100  0.383  0.000 1.0
            AmbTrs H1 CI CT OS   0   0   0   0  0.250  0.000  0.000  0.000 1.0
            AmbTrs H1 CI CT OH   0   0   0   0  0.250  0.000  0.000  0.000 1.0
            AmbTrs H1 CT CI OS   0   0   0   0  0.250  0.000  0.000  0.000 1.0
            AmbTrs H1 CT CI OH   0   0   0   0  0.250  0.000  0.000  0.000 1.0
            AmbTrs CI CT CT CT 180 180   0   0  0.200  0.250  0.180  0.000 1.0
            AmbTrs OP P  OS CA 180   0 180   0  0.000  0.000  0.000  0.000 1.0
            AmbTrs CC NA P  OP   0   0   0   0  0.000  0.000  0.240  0.000 1.0
            AmbTrs CR NA P  OP   0   0   0   0  0.000  0.000  0.000  0.000 1.0
            AmbTrs OS P  OS CI  31 351 357   0  0.185  1.257  0.355  0.000 1.0
            AmbTrs OH P  OS CI  31 351 357   0  0.185  1.257  0.355  0.000 1.0
            AmbTrs CT CT CI OS 190 295 348   0  1.178  0.092  0.963  0.000 1.0
            AmbTrs CT CT CI OH 190 295 348   0  1.178  0.092  0.963  0.000 1.0
            AmbTrs HC CT C4 C4   0   0 180   0  1.150  0.000  0.380  0.000 1.0
            AmbTrs C4 C4 C  O    0 180   0   0  0.000  2.175  0.300  0.000 1.0
            AmbTrs OS CT N* C5  68  15 171  19  0.966  1.074  0.458  0.309 1.0
            AmbTrs OS CT N* CP  74   6 168   3  0.705  1.065  0.443  0.256 1.0
            AmbTrs OS CT N* C4 146  16 185  32  1.225  1.635  0.937  0.310 1.0
            AmbTrs OS CT N* CS 149  16 179  16  1.025  1.749  0.581  0.351 1.0
            AmbTrs C  N  CX C    0   0   0   0  0.000  0.270  0.420  0.000 1.0
            AmbTrs N  CX C  N  180 180 180   0  0.450  1.580  0.550  0.000 1.0
            AmbTrs CT CT N  C    0   0   0   0  2.000  2.000  0.400  0.000 1.0
            AmbTrs CT CT C  N    0   0   0   0  0.200  0.200  0.400  0.000 1.0
            AmbTrs CT CX C  N    0   0   0   0  0.200  0.200  0.400  0.000 1.0
            AmbTrs CX CT C  N    0   0   0   0  0.200  0.200  0.400  0.000 1.0
            AmbTrs H  N  C  O    0 180   0   0  2.000  2.500  0.000  0.000 1.0
            AmbTrs CT S  S  CT   0   0   0   0  0.000  3.500  0.600  0.000 1.0
            AmbTrs OH P  OS CT   0   0   0   0  0.000  1.200  0.250  0.000 1.0
            AmbTrs OS P  OS CT   0   0   0   0  0.000  1.200  0.250  0.000 1.0
            AmbTrs H1 CT C  O    0   0 180   0  0.800  0.000  0.080  0.000 1.0
            AmbTrs H1 CX C  O    0   0 180   0  0.800  0.000  0.080  0.000 1.0
            AmbTrs HC CT C  O    0   0 180   0  0.800  0.000  0.080  0.000 1.0
            AmbTrs HC CT CT HC   0   0   0   0  0.000  0.000  0.150  0.000 1.0
            AmbTrs HC CT CT CT   0   0   0   0  0.000  0.000  0.160  0.000 1.0
            AmbTrs HC CT CT CX   0   0   0   0  0.000  0.000  0.160  0.000 1.0
            AmbTrs HC CT CM CM   0   0 180   0  1.150  0.000  0.380  0.000 1.0
            AmbTrs HC CT CS CS   0   0 180   0  1.150  0.000  0.380  0.000 1.0
            AmbTrs HO OH CT CT   0   0   0   0  0.250  0.000  0.160  0.000 1.0
            AmbTrs HO OH CT CX   0   0   0   0  0.250  0.000  0.160  0.000 1.0
            AmbTrs HO OH C  O    0 180   0   0  1.900  2.300  0.000  0.000 1.0
            AmbTrs CM CM C  O    0 180   0   0  0.000  2.175  0.300  0.000 1.0
            AmbTrs CT CM CM CT 180 180   0   0  1.900  6.650  0.000  0.000 1.0
            AmbTrs CS CS C  O    0 180   0   0  0.000  2.175  0.300  0.000 1.0
            AmbTrs CT CS CS CT 180 180   0   0  1.900  6.650  0.000  0.000 1.0
            AmbTrs CT CT CT CT 180 180   0   0  0.200  0.250  0.180  0.000 1.0
            AmbTrs CX CT CT CT 180 180   0   0  0.200  0.250  0.180  0.000 1.0
            AmbTrs CT CT NT CT   0 180   0   0  0.000  0.480  0.300  0.000 1.0
            AmbTrs CT CT OS CT   0 180   0   0  0.000  0.100  0.383  0.000 1.0
            AmbTrs CT CT OS C  180   0   0   0  0.800  0.000  0.383  0.000 1.0
            AmbTrs CT OS CT OS 180 180   0   0  1.350  0.850  0.100  0.000 1.0
            AmbTrs CT OS CT N*   0   0   0   0  0.000  0.650  0.383  0.000 1.0
            AmbTrs CT CZ CZ HZ   0   0   0   0  0.000  0.000  0.000  0.000 1.0
            AmbTrs O  C  OS CT 180 180   0   0  1.400  2.700  0.000  0.000 1.0
            AmbTrs OS CT N* CK   0   0   0   0  2.500  0.000  0.000  0.000 1.0
            AmbTrs OS CT N* CM   0   0   0   0  2.500  0.000  0.000  0.000 1.0
            AmbTrs OS CT CT OS   0   0   0   0  0.000  1.175  0.144  0.000 1.0
            AmbTrs OS CT CT OH   0   0   0   0  0.000  1.175  0.144  0.000 1.0
            AmbTrs OH CT CT OH   0   0   0   0  0.000  1.175  0.144  0.000 1.0
            AmbTrs F  CT CT F  180   0   0   0  1.200  0.000  0.000  0.000 1.0
            AmbTrs Cl CT CT Cl 180   0   0   0  0.450  0.000  0.000  0.000 1.0
            AmbTrs Br CT CT Br 180   0   0   0  0.000  0.000  0.000  0.000 1.0
            AmbTrs H1 CT CT OS   0   0   0   0  0.250  0.000  0.000  0.000 1.0
            AmbTrs H1 CT CT OH   0   0   0   0  0.250  0.000  0.000  0.000 1.0
            AmbTrs H1 CX CT OH   0   0   0   0  0.250  0.000  0.000  0.000 1.0
            AmbTrs H1 CT CT F    0   0   0   0  0.190  0.000  0.000  0.000 1.0
            AmbTrs H1 CT CT Cl   0   0   0   0  0.250  0.000  0.000  0.000 1.0
            AmbTrs H1 CT CT Br   0   0   0   0  0.550  0.000  0.000  0.000 1.0
            AmbTrs HC CT CT OS   0   0   0   0  0.250  0.000  0.000  0.000 1.0
            AmbTrs HC CT CT OH   0   0   0   0  0.250  0.000  0.000  0.000 1.0
            AmbTrs HC CT CT F    0   0   0   0  0.190  0.000  0.000  0.000 1.0
            AmbTrs HC CT CT Cl   0   0   0   0  0.250  0.000  0.000  0.000 1.0
            AmbTrs HC CT CT Br   0   0   0   0  0.550  0.000  0.000  0.000 1.0
            AmbTrs H1 CT NT EP   0   0   0   0  0.000  0.000  0.000  0.000 1.0
            AmbTrs CT CT NT EP   0   0   0   0  0.000  0.000  0.000  0.000 1.0
            AmbTrs CT C  N  EP   0 180   0   0  0.000  0.000  0.000  0.000 1.0
            AmbTrs O  C  N  EP   0 180   0   0  0.000  0.000  0.000  0.000 1.0
            AmbTrs H1 CT OH EP   0   0   0   0  0.000  0.000  0.000  0.000 1.0
            AmbTrs CT CT OH EP   0   0   0   0  0.000  0.000  0.000  0.000 1.0
            AmbTrs H1 CT OS EP   0   0   0   0  0.000  0.000  0.000  0.000 1.0
            AmbTrs H2 CT OS EP   0   0   0   0  0.000  0.000  0.000  0.000 1.0
            AmbTrs CT CT OS EP   0   0   0   0  0.000  0.000  0.000  0.000 1.0
            AmbTrs CM CM OS EP   0 180   0   0  0.000  0.000  0.000  0.000 1.0
            AmbTrs HA CM OS EP   0 180   0   0  0.000  0.000  0.000  0.000 1.0
            AmbTrs H4 CM OS EP   0 180   0   0  0.000  0.000  0.000  0.000 1.0
            AmbTrs CS CS OS EP   0 180   0   0  0.000  0.000  0.000  0.000 1.0
            AmbTrs HA CS OS EP   0 180   0   0  0.000  0.000  0.000  0.000 1.0
            AmbTrs H4 CS OS EP   0 180   0   0  0.000  0.000  0.000  0.000 1.0
            AmbTrs N  CT CT OH   0   0   0   0  0.000  1.490  0.156  0.000 1.0
            AmbTrs EP S  S  CT   0   0   0   0  0.000  0.000  0.000  0.000 1.0
            AmbTrs EP S  S  EP   0   0   0   0  0.000  0.000  0.000  0.000 1.0
            AmbTrs C8 CX N  C    0   0   0   0  2.000  1.800  0.800  0.000 1.0
            AmbTrs CT CX N  C    0   0   0   0  2.000  1.800  0.800  0.000 1.0
            AmbTrs N  C  CX C8   0   0   0   0  0.200  0.200  0.400  0.000 1.0
            AmbTrs N  C  CX CT   0   0   0   0  0.200  0.200  0.400  0.000 1.0
            AmbTrs *  C8 C8 *    0   0   0   0  0.000  0.000  1.400  0.000 9.0
            AmbTrs C8 C8 C8 HC   0   0   0   0  0.000  0.000  0.160  0.000 1.0
            AmbTrs CX C8 C8 HC   0   0   0   0  0.000  0.000  0.160  0.000 1.0
            AmbTrs HC C8 C8 HC   0   0   0   0  0.000  0.000  0.150  0.000 1.0
            AmbTrs *  C8 CX *    0   0   0   0  0.000  0.000  1.400  0.000 9.0
            AmbTrs *  C8 N2 *    0   0   0   0  0.000  0.000  0.000  0.000 6.0
            AmbTrs *  C8 N3 *    0   0   0   0  0.000  0.000  1.400  0.000 9.0
            AmbTrs C  CX C8 C8   0   0   0   0  0.000  0.000  1.400  0.000 9.0
            AmbTrs N  CX C8 C8   0   0   0   0  0.000  0.000  1.400  0.000 9.0
            AmbTrs N3 CX C8 C8   0   0   0   0  0.000  0.000  1.400  0.000 9.0
            AmbTrs CX C8 C8 C8 180 180   0   0  0.200  0.250  0.180  0.000 1.0
            AmbTrs C8 C8 C8 N2   0   0   0   0  0.000  0.000  1.400  0.000 9.0
            AmbTrs C8 C8 N2 CA   0   0   0   0  0.000  0.000  0.000  0.000 1.0
            AmbTrs C8 C8 C8 C8 180 180   0   0  0.200  0.250  0.180  0.000 1.0
            AmbTrs C8 C8 C8 N3   0   0   0   0  0.000  0.000  1.400  0.000 9.0
            AmbTrs C8 N2 CA N2   0 180   0   0  0.000  2.400  0.000  0.000 1.0
            AmbTrs H  N2 CA N2   0 180   0   0  0.000  2.400  0.000  0.000 1.0
            AmbTrs C8 C8 N3 H    0   0   0   0  0.000  0.000  1.400  0.000 9.0
            AmbTrs C  CX CT CC 180 180   0   0  0.143  0.244  0.219  0.025 1.0
            AmbTrs N  CX CT CC 180 180   0   0  0.306  0.221  0.219  0.089 1.0
            AmbTrs N3 CX CT CC 180 180   0   0  0.306  0.221  0.219  0.089 1.0
            AmbTrs CX CT CC NA 180 180   0 180  0.160  0.392  0.686  0.037 1.0
            AmbTrs CX CT CC CV 180   0 180 180  0.674  0.750  0.122  0.010 1.0
            AmbTrs CX CT CC NB   0   0   0 180  0.690  0.204  0.740  0.047 1.0
            AmbTrs C  CX CT C* 180 180   0   0  0.017  0.353  0.234  0.074 1.0
            AmbTrs N  CX CT C*   0 180   0   0  0.079  0.313  0.234  0.031 1.0
            AmbTrs N3 CX CT C*   0 180   0   0  0.079  0.313  0.234  0.031 1.0
            AmbTrs CX CT C* CB   0   0   0 180  0.365  0.408  0.819  0.095 1.0
            AmbTrs CX CT C* CW   0   0   0   0  0.000  0.000  0.000  0.000 1.0
            AmbTrs C  CX CT CA   0 180   0 180  0.055  0.469  0.192  0.012 1.0
            AmbTrs N  CX CT CA 180 180   0 180  0.012  0.290  0.192  0.007 1.0
            AmbTrs N3 CX CT CA 180 180   0 180  0.012  0.290  0.192  0.007 1.0
            AmbTrs CX CT CA CA   0 180   0 180  0.000  0.069  0.000  0.048 1.0
            AmbTrs CA C  OH HO   0 180   0   0  0.000  0.883  0.000  0.065 1.0
            !
            ! Improper torsions
            !
            ImpTrs *  *  C  O   10.5  180.0 2.0
            ImpTrs *  O2 C  O2  10.5  180.0 2.0
            ImpTrs *  *  N  H    1.0  180.0 2.0
            ImpTrs *  *  N2 H    1.0  180.0 2.0
            ImpTrs *  *  NA H    1.0  180.0 2.0
            ImpTrs *  N2 CA N2  10.5  180.0 2.0
            ImpTrs *  CT N  CT   1.0  180.0 2.0
            ImpTrs *  CT N  CX   1.0  180.0 2.0
            ImpTrs *  *  CA HA   1.1  180.0 2.0
            ImpTrs *  *  CW H4   1.1  180.0 2.0
            ImpTrs *  *  CR H5   1.1  180.0 2.0
            ImpTrs *  *  CV H4   1.1  180.0 2.0
            ImpTrs *  *  CQ H5   1.1  180.0 2.0
            ImpTrs *  *  CK H5   1.1  180.0 2.0
            ImpTrs *  *  CP H5   1.1  180.0 2.0
            ImpTrs *  *  CM H4   1.1  180.0 2.0
            ImpTrs *  *  CM HA   1.1  180.0 2.0
            ImpTrs *  *  CS H4   1.1  180.0 2.0
            ImpTrs *  *  CS HA   1.1  180.0 2.0
            ImpTrs *  *  CA H4   1.1  180.0 2.0
            ImpTrs *  *  CA H5   1.1  180.0 2.0
            ImpTrs CB CK N* CT   1.0  180.0 2.0
            ImpTrs CB CP N* CT   1.0  180.0 2.0
            ImpTrs C  CM N* CT   1.0  180.0 2.0
            ImpTrs C  CS N* CT   1.0  180.0 2.0
            ImpTrs C  CS CM CT   1.1  180.0 2.0
            ImpTrs CT O  C  OH  10.5  180.0 2.0
            ImpTrs CT CV CC NA   1.1  180.0 2.0
            ImpTrs CT CW CC NB   1.1  180.0 2.0
            ImpTrs CT CW CC NA   1.1  180.0 2.0
            ImpTrs CB CT C* CW   1.1  180.0 2.0
            ImpTrs CA CA CA CT   1.1  180.0 2.0
            ImpTrs C  CM CM CT   1.1  180.0 2.0
            ImpTrs C  CS CS CT   1.1  180.0 2.0
            ImpTrs CM N2 CA NC   1.1  180.0 2.0
            ImpTrs CS N2 CA NC   1.1  180.0 2.0
            ImpTrs CB N2 CA NC   1.1  180.0 2.0
            ImpTrs N2 NA CA NC   1.1  180.0 2.0
            ImpTrs CA CA C  OH   1.1  180.0 2.0
            ImpTrs CA CA CA OH   1.1  180.0 2.0
            ImpTrs H5 O  C  OH   1.1  180.0 2.0
            ImpTrs H5 O  C  OS   1.1  180.0 2.0
            ImpTrs CM CT CM HA   1.1  180.0 2.0
            ImpTrs CS CT CS HA   1.1  180.0 2.0
            ImpTrs Br CA CA CA   1.1  180.0 2.0
            ImpTrs CM H4 C  O    1.1  180.0 2.0
            ImpTrs CS H4 C  O    1.1  180.0 2.0
            ImpTrs C  CT N  H    1.1  180.0 2.0
            ImpTrs C  CX N  H    1.1  180.0 2.0
            ImpTrs C  CT N  O    1.1  180.0 2.0
            ImpTrs *  *  C5 H5   1.1  180.0 2.0
            ImpTrs CB C5 N* CT   1.0  180.0 2.0
            ImpTrs *  *  C4 H4   1.1  180.0 2.0
            ImpTrs *  *  C4 HA   1.1  180.0 2.0
            ImpTrs C  C4 N* CT   1.0  180.0 2.0
            ImpTrs C  C4 C4 CT   1.1  180.0 2.0
            ImpTrs C4 N2 CA NC   1.1  180.0 2.0
            ImpTrs CA CA C  OS   1.1  180.0 2.0
            ImpTrs CR CC NA P    1.1  180.0 2.0
            ImpTrs *  O2 CO O2  10.5  180.0 2.0
            !
            ! Vanderwaals parameters
            !
            VDW H  0.6000  0.0157
            VDW HO 0.0000  0.0000
            VDW HS 0.6000  0.0157
            VDW HC 1.4870  0.0157
            VDW H1 1.3870  0.0157
            VDW H2 1.2870  0.0157
            VDW H3 1.1870  0.0157
            VDW HP 1.1000  0.0157
            VDW HA 1.4590  0.0150
            VDW H4 1.4090  0.0150
            VDW H5 1.3590  0.0150
            VDW HW 0.0000  0.0000
            VDW HZ 1.4590  0.0150
            VDW O  1.6612  0.2100
            VDW O2 1.6612  0.2100
            VDW OW 1.7683  0.1520
            VDW OH 1.7210  0.2104
            VDW OS 1.6837  0.1700
            VDW OP 1.8500  0.1700
            VDW C* 1.9080  0.0860
            VDW CB 1.9080  0.0860
            VDW CC 1.9080  0.0860
            VDW CD 1.9080  0.0860
            VDW CK 1.9080  0.0860
            VDW CM 1.9080  0.0860
            VDW CN 1.9080  0.0860
            VDW CQ 1.9080  0.0860
            VDW CR 1.9080  0.0860
            VDW CV 1.9080  0.0860
            VDW CW 1.9080  0.0860
            VDW CY 1.9080  0.0860
            VDW CZ 1.9080  0.0860
            VDW CP 1.9080  0.0860
            VDW CS 1.9080  0.0860
            VDW CI 1.9080  0.1094
            VDW C5 1.9080  0.0860
            VDW C4 1.9080  0.0860
            VDW CT 1.9080  0.1094
            VDW CX 1.9080  0.1094
            VDW C  1.9080  0.0860
            VDW N  1.8240  0.1700
            VDW NA 1.8240  0.1700
            VDW N2 1.8240  0.1700
            VDW N* 1.8240  0.1700
            VDW NC 1.8240  0.1700
            VDW NB 1.8240  0.1700
            VDW NT 1.8240  0.1700
            VDW NY 1.8240  0.1700
            VDW N3 1.8240  0.1700
            VDW S  2.0000  0.2500
            VDW SH 2.0000  0.2500
            VDW P  2.1000  0.2000
            VDW MG 0.7926  0.8947
            VDW C0 1.7131  0.459789
            VDW Zn 1.10    0.0125
            VDW F  1.75    0.061
            VDW Cl 1.948   0.265
            VDW Br 2.22    0.320
            VDW I  2.35    0.40
            VDW EP 0.00    0.0000
            VDW C8 1.9080  0.1094
            VDW CO 1.9080  0.0860
 Initial command:
 /share/apps/gaussian//g16/l1.exe "/tmp/119440.mgr/Gau-137453.inp" -scrdir="/tmp/119440.mgr/"
 Entering Link 1 = /share/apps/gaussian//g16/l1.exe PID=    137454.
  
 Copyright (c) 1988-2017, Gaussian, Inc.  All Rights Reserved.
  
 This is part of the Gaussian(R) 16 program.  It is based on
 the Gaussian(R) 09 system (copyright 2009, Gaussian, Inc.),
 the Gaussian(R) 03 system (copyright 2003, Gaussian, Inc.),
 the Gaussian(R) 98 system (copyright 1998, Gaussian, Inc.),
 the Gaussian(R) 94 system (copyright 1995, Gaussian, Inc.),
 the Gaussian 92(TM) system (copyright 1992, Gaussian, Inc.),
 the Gaussian 90(TM) system (copyright 1990, Gaussian, Inc.),
 the Gaussian 88(TM) system (copyright 1988, Gaussian, Inc.),
 the Gaussian 86(TM) system (copyright 1986, Carnegie Mellon
 University), and the Gaussian 82(TM) system (copyright 1983,
 Carnegie Mellon University). Gaussian is a federally registered
 trademark of Gaussian, Inc.
  
 This software contains proprietary and confidential information,
 including trade secrets, belonging to Gaussian, Inc.
  
 This software is provided under written license and may be
 used, copied, transmitted, or stored only in accord with that
 written license.
  
 The following legend is applicable only to US Government
 contracts under FAR:
  
                    RESTRICTED RIGHTS LEGEND
  
 Use, reproduction and disclosure by the US Government is
 subject to restrictions as set forth in subparagraphs (a)
 and (c) of the Commercial Computer Software - Restricted
 Rights clause in FAR 52.227-19.
  
 Gaussian, Inc.
 340 Quinnipiac St., Bldg. 40, Wallingford CT 06492
  
  
 ---------------------------------------------------------------
 Warning -- This program may not be used in any manner that
 competes with the business of Gaussian, Inc. or will provide
 assistance to any competitor of Gaussian, Inc.  The licensee
 of this program is prohibited from giving any competitor of
 Gaussian, Inc. access to this program.  By using this program,
 the user acknowledges that Gaussian, Inc. is engaged in the
 business of creating and licensing software in the field of
 computational chemistry and represents and warrants to the
 licensee that it is not a competitor of Gaussian, Inc. and that
 it will not use this program in any manner prohibited above.
 ---------------------------------------------------------------
  

 Cite this work as:
 Gaussian 16, Revision B.01,
 M. J. Frisch, G. W. Trucks, H. B. Schlegel, G. E. Scuseria, 
 M. A. Robb, J. R. Cheeseman, G. Scalmani, V. Barone, 
 G. A. Petersson, H. Nakatsuji, X. Li, M. Caricato, A. V. Marenich, 
 J. Bloino, B. G. Janesko, R. Gomperts, B. Mennucci, H. P. Hratchian, 
 J. V. Ortiz, A. F. Izmaylov, J. L. Sonnenberg, D. Williams-Young, 
 F. Ding, F. Lipparini, F. Egidi, J. Goings, B. Peng, A. Petrone, 
 T. Henderson, D. Ranasinghe, V. G. Zakrzewski, J. Gao, N. Rega, 
 G. Zheng, W. Liang, M. Hada, M. Ehara, K. Toyota, R. Fukuda, 
 J. Hasegawa, M. Ishida, T. Nakajima, Y. Honda, O. Kitao, H. Nakai, 
 T. Vreven, K. Throssell, J. A. Montgomery, Jr., J. E. Peralta, 
 F. Ogliaro, M. J. Bearpark, J. J. Heyd, E. N. Brothers, K. N. Kudin, 
 V. N. Staroverov, T. A. Keith, R. Kobayashi, J. Normand, 
 K. Raghavachari, A. P. Rendell, J. C. Burant, S. S. Iyengar, 
 J. Tomasi, M. Cossi, J. M. Millam, M. Klene, C. Adamo, R. Cammi, 
 J. W. Ochterski, R. L. Martin, K. Morokuma, O. Farkas, 
 J. B. Foresman, and D. J. Fox, Gaussian, Inc., Wallingford CT, 2016.
 
 ******************************************
 Gaussian 16:  ES64L-G16RevB.01 20-Dec-2017
                24-Dec-2023 
 ******************************************
 %mem=24GB
 %nprocshared=12
 Will use up to   12 processors via shared memory.
 ----------------------------------------------------------------------
 # oniom(external='gau_xtb':amber=softfirst) nosymm geom=connectivity f
 orce punch=(coord,derivatives)
 ----------------------------------------------------------------------
 1/18=1000020,30=1,38=1,52=2,56=2,57=2,61=3,64=203/1,3;
 2/12=2,15=1,17=6,18=5,40=1/2;
 1/18=1000020,30=1,38=1,52=2,53=3172,61=3,64=203/20;
 3/5=30,11=9,25=1,30=1,41=10300000,43=2,71=1/1;
 4/20=11,22=1,24=3/2;
 7/7=1,30=1,33=-1,44=-1/16;
 1/18=1000020,30=1,52=2,53=2032,61=3/20;
 3/11=9,25=1,30=1,41=9900000,43=2,71=1/1;
 4/20=17,22=1,24=3,113=2,114=2/2;
 6/7=2,8=2,9=2,10=2/1;
 7/7=1,30=1,33=-1,44=-1/16;
 1/18=1000020,30=1,52=2,53=1022,61=3,64=203/20;
 3/5=30,11=9,25=1,30=1,41=10300000,43=2,71=1/1;
 4/20=11,22=1,24=3/2;
 7/7=1,30=1,33=-1,44=-1/16;
 1/18=1000020,30=1,52=2,53=3015,61=3,64=203/20;
 7/9=1,44=-1,126=2/16;
 1/18=1000020,30=1,52=2,61=3,64=203/3;
 99/10=6/99;
 -------------------
 Title Card Required
 -------------------
 Symbolic Z-matrix:
 Charge = -5 Multiplicity = 1 for low   level calculation on real  system.
 Charge =  0 Multiplicity = 1 for high  level calculation on model system.
 Charge =  0 Multiplicity = 1 for low   level calculation on model system.
 N-N3-0.001700        -1    38.665    71.586    25.58    L 
 C-CT-0.058800        -1    39.045    70.162    25.861   L 
 C-C-0.562100         -1    38.578    69.261    24.701   L 
 O-O--0.588900        -1    37.443    69.378    24.218   L 
 C-CT-0.090900        -1    38.461    69.684    27.21    L 
 C-CT--0.023600       -1    39.483    69.263    28.267   L 
 C-C-0.808700         -1    40.567    68.341    27.734   L 
 O-O2--0.818900       -1    41.759    68.591    28.006   L 
 O-O2--0.818900       -1    40.233    67.361    27.04    L 
 H-H-0.239100         -1    37.745    71.605    25.202   L 
 H-HP-0.120200        -1    40.034    70.103    25.956   L 
 H-HC--0.023200       -1    37.935    70.433    27.585   L 
 H-HC--0.023200       -1    37.886    68.902    27.022   L 
 H-HC--0.031500       -1    39.923    70.076    28.606   L 
 H-HC--0.031500       -1    39.005    68.78     28.98    L 
 H-H-0.239100         -1    38.695    72.101    26.431   L 
 H-H-0.239100         -1    39.311    71.969    24.926   L 
 N-N--0.516300        -1    39.454    68.364    24.257   L 
 C-CT-0.039700        -1    39.164    67.512    23.098   L 
 C-C-0.536600         -1    38.244    66.28     23.321   L 
 O-O--0.581900        -1    37.386    65.979    22.481   L 
 C-CT-0.056000        -1    40.483    67.073    22.459   L 
 C-CT-0.013600        -1    40.317    66.439    21.085   L 
 C-C-0.805400         -1    39.621    67.37     20.108   L 
 O-O2--0.818800       -1    38.361    67.378    20.091   L 
 O-O2--0.818800       -1    40.335    68.094    19.358   L 
 H-H-0.293600         -1    40.343    68.318    24.789   L 
 H-H1-0.110500        -1    38.751    68.091    22.349   L 
 H-HC--0.017300       -1    41.045    67.872    22.352   L 
 H-HC--0.017300       -1    40.894    66.403    23.048   L 
 H-HC--0.042500       -1    41.207    66.244    20.727   L 
 H-HC--0.042500       -1    39.761    65.638    21.179   L 
 N-N--0.516300        -1    38.418    65.575    24.437   L 
 C-CT-0.039700        -1    37.603    64.399    24.732   L 
 C-C-0.536600         -1    36.188    64.771    25.123   L 
 O-O--0.581900        -1    35.285    63.936    25.054   L 
 C-CT-0.056000        -1    38.182    63.613    25.899   L 
 C-CT-0.013600        -1    39.574    63.032    25.698   L 
 C-C-0.805400         -1    40.072    62.346    26.969   L 
 O-O2--0.818800       -1    39.362    62.405    28.011   L 
 O-O2--0.818800       -1    41.17     61.747    26.934   L 
 H-H-0.293600         -1    39.165    65.926    25.064   L 
 H-H1-0.110500        -1    37.583    63.793    23.921   L 
 H-HC--0.017300       -1    38.227    64.224    26.683   L 
 H-HC--0.017300       -1    37.569    62.853    26.088   L 
 H-HC--0.042500       -1    39.529    62.355    24.999   L 
 H-HC--0.042500       -1    40.19     63.761    25.499   L 
 N-N--0.415700        -1    35.998    66.017    25.533   L 
 C-CT--0.038900       -1    34.686    66.513    25.914   L 
 C-C-0.597300         -1    33.811    66.73     24.679   L 
 O-O--0.567900        -1    32.608    66.435    24.699   L 
 C-CT-0.365400        -1    34.81     67.847    26.69    L 
 O-OH--0.676100       -1    34.986    67.579    28.085   L 
 C-CT--0.243800       -1    33.485    68.65     26.653   L 
 H-H-0.271900         -1    36.861    66.602    25.558   L 
 H-H1-0.100700        -1    34.238    65.827    26.498   L 
 H-H1-0.004300        -1    35.634    68.344    26.352   L 
 H-HO-0.410200        -1    34.985    66.569    28.214   L 
 H-HC-0.064200        -1    33.691    69.623    26.736   L 
 H-HC-0.064200        -1    33.022    68.474    25.787   L 
 H-HC-0.064200        -1    32.906    68.359    27.412   L 
 N-N--0.347900        -1    34.418    67.249    23.609   L 
 C-CT--0.263700       -1    33.684    67.494    22.38    L 
 C-C-0.734100         -1    33.208    66.125    21.843   L 
 O-O--0.589400        -1    32.075    66.002    21.412   L 
 C-CT--0.000700       -1    34.56     68.315    21.415   L 
 C-CT-0.039000        -1    34.114    68.404    19.977   L 
 C-CT-0.048600        -1    35.264    68.084    19.049   L 
 N-N2--0.529500       -1    34.858    68.095    17.655   L 
 C-CA-0.807600        -1    35.56     68.629    16.667   L 
 N-N2--0.862700       -1    36.74     69.216    16.915   L 
 N-N2--0.862700       -1    35.077    68.577    15.417   L 
 H-H-0.274700         -1    35.424    67.452    23.734   L 
 H-H1-0.156000        -1    32.883    68.045    22.575   L 
 H-HC-0.032700        -1    34.621    69.253    21.786   L 
 H-HC-0.032700        -1    35.488    67.915    21.434   L 
 H-HC-0.028500        -1    33.386    67.748    19.81    L 
 H-HC-0.028500        -1    33.802    69.327    19.779   L 
 H-H1-0.068700        -1    35.978    68.767    19.191   L 
 H-H1-0.068700        -1    35.611    67.178    19.286   L 
 H-H-0.345600         -1    33.973    67.663    17.419   L 
 H-H-0.447800         -1    37.108    69.238    17.838   L 
 H-H-0.447800         -1    37.25     69.632    16.159   L 
 H-H-0.447800         -1    34.207    68.121    15.243   L 
 H-H-0.447800         -1    35.59     68.992    14.671   L 
 N-N--0.516300        -1    34.08     65.129    21.882   L 
 C-CT-0.039700        -1    33.758    63.755    21.446   L 
 C-C-0.536600         -1    32.506    63.234    22.15    L 
 O-O--0.581900        -1    31.544    62.763    21.534   L 
 C-CT-0.056000        -1    34.887    62.744    21.789   L 
 C-CT-0.013600        -1    35.864    62.406    20.711   L 
 C-C-0.805400         -1    36.808    61.31     21.148   L 
 O-O2--0.818800       -1    36.269    60.27     21.532   L 
 O-O2--0.818800       -1    38.072    61.49     21.108   L 
 H-H-0.293600         -1    35.025    65.39     22.249   L 
 H-H1-0.110500        -1    33.614    63.748    20.451   L 
 H-HC--0.017300       -1    35.39     63.135    22.56    L 
 H-HC--0.017300       -1    34.433    61.902    22.079   L 
 H-HC--0.042500       -1    35.374    62.076    19.929   L 
 H-HC--0.042500       -1    36.407    63.198    20.511   L 
 N-N--0.415700        -1    32.53     63.322    23.461   L 
 C-CT--0.051800       -1    31.392    62.903    24.264   L 
 C-C-0.597300         -1    30.151    63.693    23.986   L 
 O-O--0.567900        -1    29.07     63.124    23.833   L 
 C-CT--0.110200       -1    31.742    62.917    25.758   L 
 C-CT-0.353100        -1    30.756    62.542    26.847   L 
 C-CT--0.412100       -1    31.502    62.626    28.149   L 
 C-CT--0.412100       -1    29.534    63.38     26.953   L 
 H-H-0.271900         -1    33.405    63.705    23.866   L 
 H-H1-0.092200        -1    31.208    61.921    24.063   L 
 H-HC-0.045700        -1    32.563    62.307    25.875   L 
 H-HC-0.045700        -1    32.081    63.864    25.973   L 
 H-HC--0.036100       -1    30.441    61.618    26.698   L 
 H-HC-0.100000        -1    31.846    63.558    28.289   L 
 H-HC-0.100000        -1    30.893    62.386    28.91    L 
 H-HC-0.100000        -1    32.279    61.991    28.142   L 
 H-HC-0.100000        -1    29.007    63.345    26.096   L 
 H-HC-0.100000        -1    28.946    63.053    27.702   L 
 H-HC-0.100000        -1    29.779    64.339    27.137   L 
 N-N--0.415700        -1    30.255    65.007    23.913   L 
 C-CT--0.003100       -1    29.038    65.786    23.708   L 
 C-C-0.597300         -1    28.459    65.438    22.289   L 
 O-O--0.567900        -1    27.268    65.399    22.073   L 
 C-CT--0.003600       -1    29.236    67.293    24.07    L 
 C-CT--0.064500       -1    29.75     67.488    25.624   L 
 C-C-0.695100         -1    28.753    67.299    26.906   L 
 O-O--0.608600        -1    28.881    68.031    27.984   L 
 N-N--0.940700        -1    27.796    66.35     26.793   L 
 H-H-0.271900         -1    31.187    65.4      24.005   L 
 H-H1-0.085000        -1    28.358    65.5      24.371   L 
 H-HC-0.017100        -1    29.935    67.685    23.512   L 
 H-HC-0.017100        -1    28.383    67.768    24.015   L 
 H-HC-0.035200        -1    30.529    66.844    25.757   L 
 H-HC-0.035200        -1    30.14     68.428    25.687   L 
 H-H-0.425100         -1    27.189    66.196    27.541   L 
 H-H-0.425100         -1    27.748    65.832    25.923   L 
 N-N--0.415700        -1    29.308    65.181    21.327   L 
 C-CT--0.024900       -1    28.819    64.831    19.999   L 
 C-C-0.597300         -1    28.087    63.471    20.046   L 
 O-O--0.567900        -1    26.974    63.302    19.504   L 
 C-CT-0.211700        -1    29.965    64.859    19.026   L 
 O-OH--0.654600       -1    30.302    66.188    18.728   L 
 H-H-0.271900         -1    30.306    65.243    21.571   L 
 H-H1-0.084300        -1    28.151    65.52     19.714   L 
 H-H1-0.035200        -1    30.752    64.407    19.432   L 
 H-H1-0.035200        -1    29.695    64.396    18.188   L 
 H-HO-0.427500        -1    29.73     66.833    19.209   L 
 N-N--0.415700        -1    28.705    62.507    20.693   L 
 C-CT--0.051800       -1    28.105    61.187    20.798   L 
 C-C-0.597300         -1    26.79     61.19     21.535   L 
 O-O--0.567900        -1    25.801    60.601    21.102   L 
 C-CT--0.110200       -1    29.067    60.222    21.479   L 
 C-CT-0.353100        -1    28.607    58.776    21.499   L 
 C-CT--0.412100       -1    28.278    58.193    20.134   L 
 C-CT--0.412100       -1    29.605    57.96     22.281   L 
 H-H-0.271900         -1    29.619    62.757    21.105   L 
 H-H1-0.092200        -1    27.948    60.833    19.857   L 
 H-HC-0.045700        -1    29.93     60.256    20.991   L 
 H-HC-0.045700        -1    29.18     60.516    22.419   L 
 H-HC--0.036100       -1    27.784    58.701    22.096   L 
 H-HC-0.100000        -1    29.09     58.228    19.55    L 
 H-HC-0.100000        -1    27.985    57.242    20.238   L 
 H-HC-0.100000        -1    27.542    58.723    19.712   L 
 H-HC-0.100000        -1    29.668    58.306    23.22    L 
 H-HC-0.100000        -1    29.317    56.999    22.305   L 
 H-HC-0.100000        -1    30.508    58.02     21.849   L 
 N-N--0.415700        -1    26.742    61.858    22.665   L 
 C-CT-0.033700        -1    25.565    61.81     23.493   L 
 C-C-0.597300         -1    24.428    62.55     22.857   L 
 O-O--0.567900        -1    23.273    62.224    23.141   L 
 C-CT--0.182500       -1    25.897    62.473    24.867   L 
 H-H-0.271900         -1    27.593    62.401    22.897   L 
 H-H1-0.082300        -1    25.295    60.842    23.622   L 
 H-HC-0.060300        -1    25.169    63.11     25.093   L 
 H-HC-0.060300        -1    25.959    61.759    25.554   L 
 H-HC-0.060300        -1    26.764    62.951    24.784   L 
 N-N--0.415700        -1    24.709    63.541    22.005   L 
 C-CT-0.033700        -1    23.671    64.351    21.36    L 
 C-C-0.597300         -1    23.092    63.719    20.082   L 
 O-O--0.567900        -1    22.04     64.153    19.573   L 
 C-CT--0.182500       -1    24.224    65.739    21.04    L 
 H-H-0.271900         -1    25.729    63.688    21.839   L 
 H-H1-0.082300        -1    22.909    64.485    22.02    L 
 H-HC-0.060300        -1    25.074    65.881    21.544   L 
 H-HC-0.060300        -1    24.401    65.807    20.06    L 
 H-HC-0.060300        -1    23.556    66.431    21.308   L 
 N-N--0.415700        -1    23.78     62.703    19.577   L 
 C-CT-0.033700        -1    23.378    62.058    18.328   L 
 C-C-0.597300         -1    22.184    61.156    18.482   L 
 O-O--0.567900        -1    22.04     60.443    19.473   L 
 C-CT--0.182500       -1    24.548    61.285    17.774   L 
 H-H-0.271900         -1    24.607    62.413    20.13    L 
 H-H1-0.082300        -1    23.157    62.787    17.651   L 
 H-HC-0.060300        -1    25.129    61.891    17.227   L 
 H-HC-0.060300        -1    25.09     60.902    18.525   L 
 H-HC-0.060300        -1    24.219    60.537    17.194   L 
 N-N--0.415700        -1    21.29     61.164    17.498   L 
 C-CT--0.087500       -1    20.22     60.162    17.472   L 
 C-C-0.597300         -1    20.93     58.915    16.957   L 
 O-O--0.567900        -1    21.699    58.974    16.007   L 
 C-CT-0.298500        -1    19.072    60.588    16.561   L 
 C-CT--0.319200       -1    18.403    61.805    17.122   L 
 C-CT--0.319200       -1    19.547    60.89     15.211   L 
 H-H-0.271900         -1    21.408    61.897    16.792   L 
 H-H1-0.096900        -1    19.933    59.994    18.39    L 
 H-HC--0.029700       -1    18.4      59.853    16.557   L 
 H-HC-0.079100        -1    17.434    61.82     16.858   L 
 H-HC-0.079100        -1    18.465    61.803    18.124   L 
 H-HC-0.079100        -1    18.846    62.636    16.772   L 
 H-HC-0.079100        -1    19.275    61.822    14.934   L 
 H-HC-0.079100        -1    20.554    60.831    15.162   L 
 H-HC-0.079100        -1    19.163    60.24     14.541   L 
 N-N--0.415700        -1    20.682    57.77     17.578   L 
 C-CT--0.087500       -1    21.342    56.545    17.215   L 
 C-C-0.597300         -1    20.582    55.902    16.064   L 
 O-O--0.567900        -1    19.42     55.573    16.215   L 
 C-CT-0.298500        -1    21.396    55.569    18.415   L 
 C-CT--0.319200       -1    22.095    54.266    18.129   L 
 C-CT--0.319200       -1    22.078    56.231    19.636   L 
 H-H-0.271900         -1    19.973    57.842    18.343   L 
 H-H1-0.096900        -1    22.264    56.759    16.89    L 
 H-HC--0.029700       -1    20.44     55.349    18.662   L 
 H-HC-0.079100        -1    22.561    53.939    18.955   L 
 H-HC-0.079100        -1    21.428    53.577    17.837   L 
 H-HC-0.079100        -1    22.772    54.394    17.401   L 
 H-HC-0.079100        -1    22.611    57.01     19.318   L 
 H-HC-0.079100        -1    21.371    56.531    20.27    L 
 H-HC-0.079100        -1    22.671    55.56     20.071   L 
 N-N--0.254800        -1    21.213    55.715    14.918   L 
 C-CT--0.026600       -1    20.506    55.048    13.81    L 
 C-C-0.589600         -1    20.144    53.606    14.138   L 
 O-O--0.574800        -1    20.682    52.962    15.044   L 
 C-CT--0.007000       -1    21.574    55.023    12.712   L 
 C-CT-0.018900        -1    22.401    56.225    13.038   L 
 C-CT-0.019200        -1    22.602    56.07     14.493   L 
 H-H1-0.064100        -1    19.682    55.576    13.551   L 
 H-HC-0.025300        -1    22.116    54.19     12.766   L 
 H-HC-0.025300        -1    21.158    55.107    11.813   L 
 H-HC-0.021300        -1    23.262    56.198    12.541   L 
 H-HC-0.021300        -1    21.902    57.057    12.82    L 
 H-H1-0.039100        -1    23.219    55.33     14.717   L 
 H-H1-0.039100        -1    22.881    56.913    14.932   L 
 N-N--0.415700        -1    19.206    53.095    13.372   L 
 C-CT--0.024900       -1    18.75     51.728    13.556   L 
 C-C-0.597300         -1    19.813    50.701    13.217   L 
 O-O--0.567900        -1    20.774    50.969    12.462   L 
 C-CT-0.211700        -1    17.531    51.479    12.678   L 
 O-OH--0.654600       -1    17.937    51.405    11.329   L 
 H-H-0.271900         -1    18.829    53.732    12.645   L 
 H-H1-0.084300        -1    18.503    51.609    14.534   L 
 H-H1-0.035200        -1    17.114    50.621    12.941   L 
 H-H1-0.035200        -1    16.897    52.232    12.787   L 
 H-HO-0.427500        -1    18.909    51.526    11.227   L 
 N-N--0.415700        -1    19.669    49.49     13.774   L 
 C-CT-0.033700        -1    20.568    48.41     13.44    L 
 C-C-0.597300         -1    20.538    48.122    11.944   L 
 O-O--0.567900        -1    21.569    47.812    11.341   L 
 C-CT--0.182500       -1    20.181    47.14     14.211   L 
 H-H-0.271900         -1    18.882    49.412    14.439   L 
 H-H1-0.082300        -1    21.508    48.671    13.694   L 
 H-HC-0.060300        -1    19.866    46.448    13.565   L 
 H-HC-0.060300        -1    20.978    46.802    14.706   L 
 H-HC-0.060300        -1    19.451    47.357    14.855   L 
 N-N--0.415700        -1    19.358    48.219    11.327   L 
 C-CT--0.003100       -1    19.278    47.99     9.881    L 
 C-C-0.597300         -1    20.132    48.972    9.107    L 
 O-O--0.567900        -1    20.915    48.607    8.228    L 
 C-CT--0.003600       -1    17.831    48.1      9.415    L 
 C-CT--0.064500       -1    17.663    47.698    7.927    L 
 C-C-0.695100         -1    16.298    47.984    7.354    L 
 O-O--0.608600        -1    15.279    47.924    8.051    L 
 N-N--0.940700        -1    16.269    48.301    6.061    L 
 H-H-0.271900         -1    18.561    48.454    11.92    L 
 H-H1-0.085000        -1    19.627    47.059    9.7      L 
 H-HC-0.017100        -1    17.263    47.491    9.953    L 
 H-HC-0.017100        -1    17.524    49.04     9.505    L 
 H-HC-0.035200        -1    18.355    48.198    7.396    L 
 H-HC-0.035200        -1    17.852    46.713    7.854    L 
 H-H-0.425100         -1    15.38     48.496    5.593    L 
 H-H-0.425100         -1    17.142    48.348    5.545    L 
 N-N--0.415700        -1    19.981    50.248    9.434    L 
 C-CT--0.038900       -1    20.778    51.297    8.787    L 
 C-C-0.597300         -1    22.266    51.069    8.969    L 
 O-O--0.567900        -1    23.08     51.266    8.059    L 
 C-CT-0.365400        -1    20.372    52.665    9.372    L 
 O-OH--0.676100       -1    19.031    52.963    8.994    L 
 C-CT--0.243800       -1    21.199    53.843    8.814    L 
 H-H-0.271900         -1    19.274    50.439    10.163   L 
 H-H1-0.100700        -1    20.569    51.285    7.798    L 
 H-H1-0.004300        -1    20.416    52.61     10.39    L 
 H-HO-0.410200        -1    18.676    52.195    8.43     L 
 H-HC-0.064200        -1    20.772    54.704    9.088    L 
 H-HC-0.064200        -1    22.127    53.796    9.18     L 
 H-HC-0.064200        -1    21.226    53.783    7.817    L 
 N-N--0.415700        -1    22.656    50.639    10.165   L 
 C-CT--0.051800       -1    24.073    50.475    10.491   L 
 C-C-0.597300         -1    24.707    49.17     10.005   L 
 O-O--0.567900        -1    25.926    49.04     10.08    L 
 C-CT--0.110200       -1    24.255    50.596    12.016   L 
 C-CT-0.353100        -1    23.905    51.965    12.593   L 
 C-CT--0.412100       -1    23.934    51.95     14.125   L 
 C-CT--0.412100       -1    24.838    53.034    12.031   L 
 H-H-0.271900         -1    21.889    50.435    10.83    L 
 H-H1-0.092200        -1    24.589    51.252    10.071   L 
 H-HC-0.045700        -1    23.662    49.929    12.443   L 
 H-HC-0.045700        -1    25.205    50.416    12.22    L 
 H-HC--0.036100       -1    22.987    52.226    12.286   L 
 H-HC-0.100000        -1    24.849    51.698    14.434   L 
 H-HC-0.100000        -1    23.701    52.859    14.467   L 
 H-HC-0.100000        -1    23.27     51.284    14.46    L 
 H-HC-0.100000        -1    24.745    53.066    11.036   L 
 H-HC-0.100000        -1    24.596    53.924    12.418   L 
 H-HC-0.100000        -1    25.783    52.811    12.272   L 
 N-N--0.347900        -1    23.857    48.251    9.522    L 
 C-CT--0.240000       -1    24.249    46.957    8.925    L 
 C-C-0.734100         -1    24.929    46.02     9.929    L 
 O-O--0.589400        -1    25.627    45.075    9.588    L 
 C-CT--0.009400       -1    25.148    47.137    7.702    L 
 C-CT-0.018700        -1    24.643    48.102    6.667    L 
 C-CT--0.047900       -1    25.687    48.355    5.568    L 
 C-CT--0.014300       -1    25.142    49.217    4.436    L 
 N-N3--0.385400       -1    23.873    48.629    3.832    L 
 H-H-0.274700         -1    22.842    48.539    9.606    L 
 H-H1-0.142600        -1    23.416    46.503    8.572    L 
 H-HC-0.036200        -1    26.047    47.453    8.025    L 
 H-HC-0.036200        -1    25.265    46.235    7.271    L 
 H-HC-0.010300        -1    23.818    47.733    6.234    L 
 H-HC-0.010300        -1    24.425    48.979    7.098    L 
 H-HC-0.062100        -1    26.468    48.82     5.976    L 
 H-HC-0.062100        -1    25.97     47.476    5.193    L 
 H-HP-0.113500        -1    24.93     50.13     4.786    L 
 H-HP-0.113500        -1    25.829    49.29     3.713    L 
 H-H-0.340000         -1    23.681    47.765    4.284    L 
 H-H-0.340000         -1    23.129    49.271    3.979    L 
 H-H-0.340000         -1    24.024    48.488    2.86     L 
 N-N--0.415700        -1    24.716    46.283    11.199   L 
 C-CT--0.059700       -1    25.423    45.515    12.232   L 
 C-C-0.597300         -1    24.908    44.078    12.472   L 
 O-O--0.567900        -1    25.543    43.322    13.211   L 
 C-CT-0.130300        -1    25.522    46.273    13.552   L 
 C-CT--0.043000       -1    24.137    46.654    14.049   L 
 C-CT--0.320400       -1    26.45     47.388    13.41    L 
 C-CT--0.066000       -1    24.142    47.166    15.467   L 
 H-H-0.271900         -1    24.047    47.033    11.405   L 
 H-H1-0.086900        -1    26.384    45.419    11.906   L 
 H-HC-0.018700        -1    25.938    45.669    14.227   L 
 H-HC-0.023600        -1    23.766    47.359    13.45    L 
 H-HC-0.023600        -1    23.552    45.847    14.001   L 
 H-HC-0.088200        -1    26.596    47.857    14.292   L 
 H-HC-0.088200        -1    27.35     47.074    13.078   L 
 H-HC-0.088200        -1    26.102    48.072    12.753   L 
 H-HC-0.018600        -1    24.721    47.979    15.526   L 
 H-HC-0.018600        -1    23.209    47.401    15.741   L 
 H-HC-0.018600        -1    24.499    46.458    16.076   L 
 N-N--0.415700        -1    23.792    43.704    11.87    L 
 C-CT--0.038900       -1    23.317    42.333    11.981   L 
 C-C-0.597300         -1    24.02     41.421    10.972   L 
 O-O--0.567900        -1    23.924    40.192    11.016   L 
 C-CT-0.365400        -1    21.792    42.356    11.706   L 
 O-OH--0.676100       -1    21.174    43.338    12.565   L 
 C-CT--0.243800       -1    21.094    41.115    12.173   L 
 H-H-0.271900         -1    23.306    44.44     11.335   L 
 H-H1-0.100700        -1    23.524    41.993    12.907   L 
 H-H1-0.004300        -1    21.638    42.638    10.742   L 
 H-HO-0.410200        -1    21.9      43.763    13.131   L 
 H-HC-0.064200        -1    20.118    41.301    12.337   L 
 H-HC-0.064200        -1    21.169    40.388    11.481   L 
 H-HC-0.064200        -1    21.504    40.783    13.03    L 
 N-N--0.516300        -1    24.742    41.997    10.041   L 
 C-CT-0.038100        -1    25.382    41.215    8.958    L 
 C-C-0.536600         -1    26.698    40.571    9.385    L 
 O-O--0.581900        -1    27.612    41.22     9.832    L 
 C-CT--0.030300       -1    25.701    42.123    7.757    L 
 C-C-0.799400         -1    24.497    42.829    7.113    L 
 O-O2--0.801400       -1    23.289    42.567    7.41     L 
 O-O2--0.801400       -1    24.749    43.725    6.232    L 
 H-H-0.293600         -1    24.834    43.027    10.113   L 
 H-H1-0.088000        -1    24.742    40.466    8.726    L 
 H-HC--0.012200       -1    26.347    42.826    8.066    L 
 H-HC--0.012200       -1    26.146    41.561    7.055    L 
 N-N--0.415700        -1    26.836    39.251    9.256    L 
 C-CT--0.002400       -1    28.14     38.666    9.523    L 
 C-C-0.597300         -1    29.27     39.212    8.615    L 
 O-O--0.567900        -1    30.434    39.19     9.084    L 
 C-CT--0.034300       -1    28.069    37.173    9.34     L 
 C-CA-0.011800        -1    27.324    36.386    10.438   L 
 C-CA--0.125600       -1    26.222    35.672    10.118   L 
 C-CA--0.125600       -1    27.783    36.394    11.741   L 
 C-CA--0.170400       -1    25.557    34.957    11.128   L 
 C-CA--0.170400       -1    27.137    35.698    12.728   L 
 C-CA--0.107200       -1    26.035    34.987    12.413   L 
 H-H-0.271900         -1    26.008    38.736    8.976    L 
 H-H1-0.097800        -1    28.397    38.92     10.472   L 
 H-HC-0.029500        -1    27.599    36.974    8.483    L 
 H-HC-0.029500        -1    28.996    36.806    9.311    L 
 H-HA-0.133000        -1    25.867    35.634    9.197    L 
 H-HA-0.133000        -1    28.612    36.924    11.965   L 
 H-HA-0.143000        -1    24.733    34.432    10.887   L 
 H-HA-0.143000        -1    27.494    35.728    13.679   L 
 H-HA-0.129700        -1    25.542    34.46     13.129   L 
 N-N--0.415700        -1    28.951    39.67     7.383    L 
 C-CT--0.024900       -1    29.947    40.25     6.465    L 
 C-C-0.597300         -1    30.302    41.725    6.713    L 
 O-O--0.567900        -1    31.001    42.34     5.908    L 
 C-CT-0.211700        -1    29.519    40.122    4.977    L 
 O-OH--0.654600       -1    28.227    40.655    4.804    L 
 H-H-0.271900         -1    27.943    39.576    7.144    L 
 H-H1-0.084300        -1    30.808    39.706    6.561    L 
 H-H1-0.035200        -1    30.166    40.628    4.426    L 
 H-H1-0.035200        -1    29.519    39.162    4.739    L 
 H-HO-0.427500        -1    27.858    41.       5.657    L 
 N-N--0.415700        -1    29.836    42.276    7.79     L 
 C-CT--0.002400       -1    30.098    43.686    8.135    L 
 C-C-0.597300         -1    31.56     44.077    8.087    L 
 O-O--0.567900        -1    32.453    43.338    8.503    L 
 C-CT--0.034300       -1    29.544    43.878    9.572    L 
 C-CA-0.011800        -1    29.812    45.214    10.232   L 
 C-CA--0.125600       -1    28.926    46.23     10.133   L 
 C-CA--0.125600       -1    30.978    45.415    10.964   L 
 C-CA--0.170400       -1    29.155    47.482    10.745   L 
 C-CA--0.170400       -1    31.214    46.653    11.573   L 
 C-CA--0.107200       -1    30.293    47.661    11.449   L 
 H-H-0.271900         -1    29.259    41.656    8.403    L 
 H-H1-0.097800        -1    29.615    44.245    7.434    L 
 H-HC-0.029500        -1    28.555    43.752    9.527    L 
 H-HC-0.029500        -1    29.951    43.168    10.142   L 
 H-HA-0.133000        -1    28.069    46.121    9.616    L 
 H-HA-0.133000        -1    31.643    44.685    11.057   L 
 H-HA-0.143000        -1    28.466    48.2      10.637   L 
 H-HA-0.143000        -1    32.07     46.786    12.099   L 
 H-HA-0.129700        -1    30.475    48.555    11.897   L 
 N-N--0.415700        -1    31.757    45.288    7.553    L 
 C-CT--0.024900       -1    33.042    45.967    7.536    L 
 C-C-0.597300         -1    32.982    47.332    8.273    L 
 O-O--0.567900        -1    32.07     48.126    8.083    L 
 C-CT-0.211700        -1    33.422    46.252    6.08     L 
 O-OH--0.654600       -1    34.563    47.073    5.981    L 
 H-H-0.271900         -1    30.884    45.71     7.14     L 
 H-H1-0.084300        -1    33.714    45.397    8.025    L 
 H-H1-0.035200        -1    33.603    45.381    5.622    L 
 H-H1-0.035200        -1    32.651    46.707    5.634    L 
 H-HO-0.427500        -1    34.893    47.302    6.898    L 
 N-N--0.516300        -1    33.967    47.582    9.112    L 
 C-CT-0.038100        -1    34.119    48.87     9.774    L 
 C-C-0.536600         -1    34.943    49.921    9.037    L 
 O-O--0.581900        -1    35.015    51.066    9.467    L 
 C-CT--0.030300       -1    34.815    48.641    11.119   L 
[...]
 5\H,41.898,35.611,14.076\O,22.942,34.411,34.283\H,22.648,34.58,33.342\
 H,23.629,33.686,34.337\O,17.596,48.508,25.652\H,17.814,48.139,24.748\H
 ,17.591,47.797,26.356\O,23.396,49.882,35.181\H,24.214,49.728,34.627\H,
 22.565,49.575,34.717\O,21.522,22.557,24.539\H,21.025,23.413,24.398\H,2
 2.021,22.369,23.693\O,44.914,30.913,32.476\H,45.069,31.5,31.681\H,45.4
 76,30.087,32.448\O,32.177,38.878,41.247\H,31.37,38.674,40.693\H,32.581
 ,38.052,41.639\O,29.258,46.623,6.334\H,29.444,47.575,6.092\H,28.482,46
 .632,6.964\O,18.155,54.676,11.121\H,18.46,54.079,10.379\H,18.53,55.599
 ,11.038\O,51.105,41.359,4.64\H,50.883,40.594,5.244\H,50.336,41.462,4.0
 1\O,21.609,63.217,15.435\H,22.481,63.702,15.509\H,20.889,63.91,15.476\
 O,54.316,27.294,6.613\H,53.928,27.7,5.786\H,54.509,26.32,6.497\O,36.46
 1,45.531,8.664\H,36.584,46.231,9.368\H,36.155,44.661,9.05\O,38.684,52.
 803,38.33\H,38.368,52.451,37.449\H,38.328,53.719,38.518\O,42.079,43.83
 ,0.409\H,41.385,43.526,1.062\H,42.221,44.819,0.447\O,45.879,53.914,24.
 899\H,45.346,53.563,24.129\H,46.774,54.254,24.611\O,39.199,50.205,10.0
 94\H,38.391,49.884,10.589\H,39.221,51.202,10.019\O,46.721,22.144,7.453
 \H,45.859,22.425,7.031\H,46.834,21.15,7.449\O,24.127,38.029,8.654\H,23
 .535,38.162,9.449\H,23.682,38.485,7.883\O,27.028,28.546,33.589\H,27.43
 6,27.672,33.326\H,26.029,28.516,33.564\O,44.057,56.406,22.873\H,43.627
 ,55.829,23.567\H,43.4,57.022,22.438\O,20.138,27.615,26.675\H,20.461,28
 .557,26.582\H,19.796,27.249,25.81\O,35.208,43.549,9.741\H,34.298,43.47
 9,9.332\H,35.185,44.002,10.632\O,47.155,36.12,23.669\H,46.536,36.307,2
 4.432\H,47.059,36.792,22.935\O,56.025,28.106,8.552\H,56.954,28.469,8.6
 19\H,56.017,27.149,8.263\O,29.967,29.195,12.598\H,30.263,28.241,12.64\
 H,29.219,29.327,11.948\O,64.358,38.144,3.303\H,63.621,37.588,3.687\H,6
 5.202,38.065,3.833\O,53.41,28.164,0.153\H,52.879,27.979,-0.674\H,53.69
 1,27.323,0.615\O,43.653,33.372,-4.079\H,43.859,32.84,-3.257\H,43.253,3
 4.262,-3.859\O,38.517,27.976,26.718\H,39.389,27.533,26.51\H,38.507,28.
 37,27.637\O,32.985,42.255,12.534\H,31.988,42.318,12.583\H,33.399,42.14
 4,13.438\O,31.941,33.385,30.54\H,32.189,34.279,30.914\H,31.495,33.463,
 29.648\O,55.692,45.201,8.303\H,55.684,46.201,8.29\H,55.145,44.918,9.09
 1\O,42.361,26.679,-3.498\H,42.312,27.543,-2.996\H,41.951,26.75,-4.407\
 O,45.865,52.,26.578\H,46.518,51.31,26.889\H,44.999,51.593,26.287\O,19.
 325,58.216,29.966\H,19.253,59.034,30.536\H,18.926,58.446,29.078\O,40.4
 94,25.139,0.371\H,40.604,25.028,-0.617\H,40.358,26.115,0.538\O,20.968,
 40.955,45.091\H,21.086,40.488,45.967\H,20.64,41.877,45.297\O,24.177,16
 .977,21.935\H,24.008,17.598,22.7\H,24.192,16.02,22.225\O,57.769,34.452
 ,20.23\H,58.167,35.352,20.054\H,57.984,33.798,19.504\O,29.439,49.22,7.
 625\H,30.351,48.841,7.784\H,29.428,49.862,6.859\O,39.382,46.773,10.654
 \H,38.41,47.002,10.606\H,39.542,45.915,11.142\O,41.246,48.858,10.561\H
 ,40.272,48.975,10.756\H,41.796,48.838,11.396\O,35.221,29.761,30.977\H,
 34.922,29.23,31.77\H,34.591,29.67,30.206\O,30.276,35.366,7.017\H,30.22
 9,34.368,6.971\H,31.211,35.703,6.91\O,18.253,44.665,16.045\H,18.293,45
 .592,16.418\H,17.382,44.481,15.589\O,25.508,66.671,23.964\H,26.119,66.
 229,23.307\H,24.587,66.282,23.94\O,59.907,45.378,25.514\H,60.722,44.92
 9,25.146\H,59.982,45.544,26.497\O,49.963,28.052,10.661\H,49.473,28.611
 ,9.992\H,50.508,27.337,10.224\O,20.208,24.908,14.522\H,19.591,24.623,1
 3.789\H,20.57,24.073,14.936\O,36.986,30.998,-2.212\H,37.434,31.049,-1.
 32\H,36.845,30.053,-2.507\O,44.052,36.125,20.351\H,43.064,36.241,20.45
 6\H,44.427,35.48,21.016\O,47.185,25.237,25.449\H,46.355,25.795,25.48\H
 ,47.73,25.328,26.283\O,25.973,64.84,17.583\H,26.35,64.261,18.306\H,26.
 679,65.153,16.947\O,56.152,47.305,19.61\H,56.093,46.939,18.681\H,56.66
 4,48.163,19.643\O,43.436,19.895,27.784\H,42.78,20.523,27.365\H,44.379,
 20.117,27.535\O,46.903,37.123,18.194\H,46.804,36.132,18.107\H,47.397,3
 7.379,19.025\O,34.986,34.047,36.887\H,34.401,34.536,36.24\H,35.752,33.
 593,36.431\O,32.398,17.416,30.026\H,32.996,18.217,30.005\H,32.509,16.8
 44,29.213\O,32.856,50.047,5.951\H,32.592,49.401,6.668\H,32.927,49.606,
 5.056\O,19.391,46.533,37.226\H,19.891,47.091,37.888\H,19.444,45.558,37
 .442\O,42.936,21.141,21.209\H,42.896,21.702,22.036\H,42.517,20.243,21.
 344\O,35.081,40.506,13.032\H,34.565,40.955,13.762\H,35.691,41.141,12.5
 58\O,30.067,57.712,38.871\H,30.27,56.768,39.13\H,29.09,57.856,38.715\O
 ,42.889,20.543,14.776\H,41.943,20.864,14.719\H,43.,19.631,14.381\O,17.
 743,36.013,26.32\H,18.368,35.349,26.73\H,17.623,36.82,26.898\O,60.848,
 36.21,1.865\H,60.457,35.327,2.124\H,61.386,36.613,2.605\O,39.1,48.221,
 39.422\H,38.473,48.361,38.656\H,39.949,47.777,39.135\O,60.015,45.482,3
 6.818\H,59.19,45.776,37.301\H,60.777,46.113,36.96\O,54.863,34.633,20.3
 65\H,54.553,35.36,20.978\H,55.861,34.586,20.313\O,19.68,53.723,23.545\
 H,20.02,52.848,23.202\H,18.706,53.685,23.769\O,30.862,43.343,3.482\H,3
 0.915,42.961,4.405\H,30.242,44.126,3.435\O,23.059,47.4,43.967\H,23.077
 ,47.092,43.016\H,23.321,48.361,44.055\O,35.01,22.771,6.948\H,34.978,22
 .337,7.848\H,35.124,22.102,6.213\O,43.903,52.752,15.206\H,44.829,52.68
 3,15.578\H,43.861,52.463,14.249\O,29.559,28.552,-0.652\H,29.795,28.756
 ,0.298\H,29.104,27.666,-0.744\O,49.993,29.588,13.115\H,49.493,28.757,1
 3.359\H,50.876,29.384,12.692\O,67.741,32.126,17.047\H,68.402,32.25,17.
 787\H,68.243,31.743,16.272\O,53.748,48.372,27.106\H,53.689,47.374,27.1
 24\H,54.716,48.603,27.011\O,31.357,35.038,-1.889\H,32.192,35.527,-1.63
 6\H,30.892,35.466,-2.664\O,31.349,60.73,11.852\H,31.797,59.851,12.013\
 H,32.009,61.475,11.752\O,20.815,60.729,22.045\H,21.243,60.629,21.147\H
 ,20.28,59.923,22.297\O,27.218,31.348,32.669\H,26.361,31.483,32.172\H,2
 7.069,30.935,33.568\O,30.461,25.926,2.398\H,31.184,26.59,2.205\H,30.27
 6,25.443,1.542\O,59.177,28.937,12.64\H,58.87,28.585,13.524\H,58.778,28
 .346,11.939\O,25.451,16.325,18.561\H,26.385,16.085,18.825\H,24.849,15.
 527,18.545\O,55.796,43.163,5.272\H,55.732,43.683,6.124\H,55.928,43.828
 ,4.537\O,47.205,51.421,13.795\H,46.916,51.831,14.66\H,46.426,51.166,13
 .222\O,29.993,68.409,19.989\H,30.59,67.719,20.397\H,30.013,69.27,20.49
 7\O,65.39,44.112,14.729\H,64.761,43.779,15.431\H,65.116,43.822,13.812\
 O,28.051,20.871,35.992\H,27.725,21.015,35.058\H,28.925,20.386,36.013\O
 ,44.003,55.852,30.37\H,43.616,54.998,30.023\H,44.944,55.736,30.687\O,2
 3.513,52.441,35.772\H,22.627,52.529,35.316\H,24.098,51.763,35.327\O,19
 .226,43.054,14.611\H,19.912,43.154,13.89\H,19.021,43.925,15.057\O,28.5
 59,21.953,11.187\H,28.964,22.409,11.98\H,29.251,21.667,10.525\O,37.28,
 58.766,12.856\H,37.764,59.184,13.625\H,37.962,58.267,12.322\O,47.484,2
 9.416,-7.719\H,47.473,29.598,-6.736\H,48.278,29.826,-8.168\O,42.932,36
 .033,15.464\H,42.665,36.982,15.295\H,43.922,35.905,15.399\O,55.747,27.
 976,2.44\H,54.958,28.114,3.038\H,55.49,27.551,1.572\O,31.595,36.637,5.
 046\H,32.39,36.222,5.488\H,30.854,35.979,4.912\O,42.729,48.854,12.604\
 H,42.602,48.805,13.595\H,43.208,49.687,12.328\O,36.216,22.821,30.715\H
 ,36.039,21.982,30.201\H,36.912,22.688,31.421\O,23.499,22.82,12.078\H,2
 4.043,23.466,12.613\H,23.069,22.125,12.654\O,60.32,41.292,4.165\H,60.1
 4,40.485,4.727\H,60.429,41.059,3.199\O,30.638,33.787,2.544\H,30.112,32
 .938,2.488\H,31.395,33.717,3.194\O,43.758,21.927,-0.216\H,42.983,21.32
 9,-0.42\H,44.05,22.328,-1.084\O,44.553,20.388,19.333\H,45.38,20.828,19
 .683\H,44.847,19.567,18.844\O,33.201,25.157,31.807\H,32.27,24.926,31.5
 24\H,33.249,26.058,32.238\O,36.738,34.74,0.824\H,37.418,34.855,1.548\H
 ,35.807,34.705,1.187\O,34.87,37.098,-0.823\H,34.467,37.933,-1.198\H,35
 .346,36.643,-1.576\O,41.365,47.071,38.245\H,41.271,46.924,37.26\H,41.5
 78,46.224,38.732\O,35.66,59.053,31.846\H,35.592,59.064,30.848\H,36.612
 ,58.842,32.068\O,40.19,21.368,9.905\H,40.842,21.955,10.385\H,40.389,20
 .397,10.04\O,23.312,60.082,14.224\H,22.703,59.663,14.898\H,22.896,60.8
 79,13.786\O,35.351,47.305,3.308\H,35.069,47.222,4.264\H,34.799,46.731,
 2.703\O,28.002,66.825,16.702\H,28.737,66.622,17.349\H,27.662,67.76,16.
 802\O,41.824,69.533,20.117\H,41.149,68.881,19.773\H,42.313,69.992,19.3
 76\O,49.762,47.832,8.379\H,50.351,47.034,8.507\H,49.221,47.768,7.541\O
 ,59.115,35.775,22.242\H,59.013,36.174,21.331\H,58.243,35.451,22.61\O,4
 1.798,26.93,32.522\H,41.562,26.75,33.477\H,42.012,26.046,32.105\O,43.0
 16,39.658,-3.988\H,43.89,40.088,-3.764\H,43.161,39.127,-4.823\O,22.554
 ,27.329,31.37\H,22.73,26.626,30.681\H,23.334,27.458,31.982\O,57.42,35.
 283,34.8\H,56.723,34.824,34.249\H,58.28,34.773,34.819\O,51.456,43.666,
 6.177\H,50.748,43.613,6.881\H,51.434,42.877,5.563\O,22.493,20.724,14.8
 65\H,23.044,21.408,15.343\H,21.551,20.701,15.199\O,61.375,32.729,29.24
 9\H,60.979,33.028,28.381\H,61.752,31.805,29.191\O,38.619,20.633,28.721
 \H,37.643,20.629,28.94\H,38.804,20.228,27.825\O,35.73,14.523,19.449\H,
 35.546,13.765,20.074\H,34.998,15.204,19.46\O,17.425,47.897,36.377\H,17
 .362,47.436,35.492\H,18.173,47.537,36.935\O,15.526,51.328,9.863\H,16.3
 8,51.355,10.382\H,15.428,50.477,9.347\O,54.249,52.434,15.215\H,53.441,
 52.797,15.679\H,55.094,52.667,15.696\O,22.229,60.927,29.876\H,21.273,6
 0.677,30.031\H,22.619,61.419,30.654\O,49.771,51.987,28.022\H,49.04,51.
 336,27.818\H,49.539,52.582,28.792\O,38.13,46.398,4.268\H,37.284,46.566
 ,4.775\H,38.118,47.008,3.476\O,41.058,56.16,17.146\H,40.168,56.54,16.8
 93\H,41.285,56.341,18.103\O,33.236,28.966,37.304\H,32.961,28.572,36.42
 7\H,33.533,28.265,37.953\O,49.25,25.495,2.205\H,48.411,25.448,1.663\H,
 49.245,24.842,2.962\O,16.802,28.455,12.596\H,17.699,28.89,12.678\H,16.
 559,27.939,13.417\O,35.219,8.255,20.935\H,35.19,9.241,21.097\H,35.722,
 7.771,21.651\O,21.017,46.712,6.509\H,20.977,47.452,7.18\H,20.787,47.02
 8,5.589\O,50.157,45.993,28.275\H,49.405,46.324,27.705\H,51.042,46.085,
 27.818\O,17.35,35.229,43.119\H,18.159,35.812,43.187\H,17.07,34.872,44.
 01\O,43.278,66.78,27.93\H,42.636,67.546,27.962\H,44.193,67.045,28.232\
 O,49.231,39.22,4.654\H,48.862,39.51,5.537\H,50.072,39.708,4.42\O,49.03
 ,38.078,19.723\H,49.344,37.156,19.951\H,49.792,38.701,19.549\O,30.818,
 69.687,24.279\H,31.297,68.816,24.391\H,31.352,70.343,23.746\O,28.75,56
 .491,36.381\H,27.861,56.111,36.638\H,29.17,56.836,37.22\O,36.799,41.66
 8,11.406\H,36.249,42.465,11.655\H,36.747,41.468,10.428\O,49.88,35.582,
 20.34\H,50.658,34.994,20.119\H,49.827,35.783,21.318\O,39.977,45.044,12
 .728\H,39.332,45.389,13.41\H,40.915,45.332,12.919\O,58.459,37.754,34.3
 42\H,57.945,38.607,34.252\H,59.384,37.833,33.97\O,32.544,35.556,2.831\
 H,32.923,35.51,3.755\H,31.667,35.081,2.762\O,44.186,48.854,6.41\H,44.0
 69,49.218,5.486\H,44.473,49.618,6.987\O,22.956,35.771,8.074\H,23.405,3
 6.637,8.296\H,21.974,35.885,7.925\O,51.981,33.995,19.744\H,52.485,34.6
 45,20.313\H,52.024,33.065,20.11\O,19.462,56.896,10.351\H,19.359,55.956
 ,10.027\H,20.367,57.267,10.145\O,52.593,31.724,26.896\H,53.508,31.625,
 26.506\H,52.587,31.563,27.883\O,22.747,66.274,24.511\H,21.988,66.029,2
 3.907\H,22.681,67.219,24.831\O,35.72,61.077,16.893\H,36.67,61.39,16.88
 2\H,35.688,60.27,17.483\O,54.042,45.858,27.628\H,54.63,45.859,28.437\H
 ,54.519,45.33,26.925\O,47.822,33.484,20.587\H,48.419,32.891,21.127\H,4
 8.384,34.247,20.268\O,49.199,31.754,22.429\H,49.061,32.098,23.358\H,50
 .186,31.658,22.3\O,51.657,25.112,1.079\H,51.717,25.722,0.289\H,50.768,
 25.172,1.533\O,50.51,30.193,26.15\H,51.284,30.762,26.427\H,50.745,29.5
 82,25.394\O,16.667,37.752,16.235\H,17.537,37.358,15.94\H,16.08,37.986,
 15.46\O,32.471,24.741,34.851\H,32.437,25.682,34.516\H,31.596,24.562,35
 .3\O,24.009,31.081,4.21\H,23.631,30.82,5.098\H,23.617,31.936,3.872\O,3
 4.765,32.264,-2.839\H,35.289,33.027,-2.461\H,34.776,32.26,-3.839\O,17.
 561,36.418,31.684\H,17.256,35.474,31.557\H,16.799,37.007,31.413\O,50.3
 24,54.043,25.354\H,50.244,53.459,26.161\H,50.906,54.814,25.612\O,15.52
 6,52.242,19.592\H,15.054,52.699,18.838\H,14.92,51.514,19.912\O,48.41,4
 7.458,6.255\H,48.483,46.91,5.422\H,48.3,48.431,6.055\O,14.557,49.435,1
 1.833\H,15.414,49.934,11.705\H,13.804,49.845,11.318\O,55.161,28.308,11
 .366\H,55.516,28.443,10.441\H,55.538,27.443,11.697\O,33.501,62.192,13.
 315\H,33.258,61.257,13.057\H,33.382,62.833,12.557\O,40.951,53.634,12.6
 89\H,40.498,53.654,13.58\H,41.682,54.313,12.625\O,55.52,48.163,12.282\
 H,55.996,47.871,13.111\H,55.903,49.007,11.907\O,52.842,49.918,15.676\H
 ,51.908,50.264,15.769\H,53.494,50.649,15.475\O,37.581,16.246,20.906\H,
 37.189,16.775,21.658\H,36.901,15.659,20.466\O,39.523,30.009,-4.114\H,4
 0.295,29.76,-3.529\H,38.75,29.385,-4.\O,60.974,36.633,-0.901\H,61.358,
 37.382,-1.44\H,61.06,36.796,0.082\O,51.323,26.329,9.294\H,50.936,26.66
 7,8.436\H,52.318,26.428,9.322\O,30.567,39.627,12.004\H,30.483,40.597,1
 2.233\H,30.544,39.472,11.016\O,63.526,43.71,26.685\H,62.989,43.882,25.
 859\H,64.501,43.876,26.539\O,33.722,15.923,26.461\H,33.706,16.733,25.8
 75\H,34.651,15.578,26.599\O,57.418,29.766,0.899\H,56.971,29.301,1.663\
 H,56.691,30.13,0.316\O,17.967,38.304,26.187\H,17.882,38.5,27.164\H,17.
 075,38.205,25.745\O,18.375,55.298,21.42\H,18.817,54.764,22.14\H,17.506
 ,55.69,21.723\O,45.061,51.8,29.59\H,44.674,51.033,30.102\H,44.373,52.4
 94,29.377\O,46.16,20.877,2.389\H,45.51,21.161,1.684\H,46.783,20.168,2.
 06\O,51.873,23.795,5.016\H,51.734,22.831,5.243\H,52.457,24.179,5.731\O
 ,47.359,33.733,36.767\H,48.303,33.904,36.485\H,47.279,33.618,37.757\O,
 67.009,33.311,6.876\H,66.767,33.256,7.845\H,67.902,33.739,6.737\O,35.1
 83,58.835,28.194\H,34.547,58.064,28.164\H,34.802,59.652,27.762\O,26.41
 3,68.247,28.073\H,27.409,68.16,28.037\H,26.123,69.199,28.167\O,29.484,
 49.825,39.228\H,30.195,50.092,38.577\H,29.856,49.305,39.997\O,58.65,27
 .45,14.822\H,58.539,26.514,14.487\H,57.84,27.659,15.37\O,47.994,28.604
 ,29.877\H,47.443,28.624,30.711\H,48.835,28.111,30.098\O,48.488,53.419,
 13.208\H,47.885,52.64,13.378\H,48.737,53.386,12.24\O,41.923,32.354,-5.
 907\H,42.56,32.729,-5.234\H,42.085,32.723,-6.822\O,17.054,53.393,24.17
 4\H,16.697,54.078,24.809\H,16.926,52.502,24.609\O,59.716,47.28,14.263\
 H,58.853,47.176,14.757\H,59.926,46.479,13.702\O,49.007,49.498,10.198\H
 ,49.3,48.852,9.493\H,49.082,50.447,9.892\O,40.872,18.632,17.288\H,40.5
 91,17.695,17.497\H,41.825,18.588,16.988\O,46.008,20.444,27.07\H,46.646
 ,19.926,27.64\H,46.175,21.412,27.256\O,40.025,22.681,4.98\H,40.794,23.
 045,5.506\H,40.076,21.687,4.881\O,37.975,20.294,9.892\H,37.076,20.693,
 9.711\H,38.71,20.964,9.791\O,56.947,30.05,31.215\H,56.795,30.736,31.92
 7\H,56.958,29.121,31.585\O,33.862,62.58,30.376\H,34.427,62.79,31.174\H
 ,34.289,62.882,29.524\O,23.777,19.705,35.208\H,24.56,20.088,34.718\H,2
 4.031,18.912,35.761\O,41.537,19.428,20.47\H,41.338,19.19,19.519\H,42.0
 47,18.706,20.938\O,40.962,24.72,-2.074\H,41.466,25.47,-2.503\H,41.534,
 23.903,-2.155\O,17.346,53.692,31.306\H,18.319,53.792,31.097\H,16.801,5
 4.436,30.919\O,15.561,41.18,18.484\H,15.833,42.057,18.088\H,15.867,40.
 407,17.929\O,17.313,33.356,9.96\H,17.83,32.545,10.234\H,17.715,33.804,
 9.161\O,19.009,44.707,11.34\H,19.771,44.225,11.771\H,18.636,45.423,11.
 93\O,64.027,42.703,11.884\H,63.067,42.951,12.015\H,64.378,43.015,11.00
 1\O,49.081,46.266,35.97\H,48.379,45.641,35.628\H,48.741,46.841,36.714\
 O,30.545,19.556,35.614\H,30.545,18.59,35.873\H,31.313,19.984,36.091\O,
 54.253,25.796,1.479\H,54.002,26.45,2.192\H,55.211,25.516,1.548\O,62.42
 3,42.277,5.137\H,61.801,41.507,5.277\H,62.621,42.427,4.168\O,52.899,29
 .076,35.194\H,52.763,30.064,35.261\H,53.518,28.734,35.901\O,39.094,42.
 276,13.595\H,39.359,43.2,13.318\H,39.449,41.653,12.898\O,23.009,30.392
 ,6.559\H,22.816,31.188,7.133\H,22.151,29.887,6.468\O,60.554,37.148,35.
 894\H,61.11,37.091,35.065\H,60.729,36.385,36.516\O,27.696,50.646,9.031
 \H,27.018,50.031,9.433\H,28.382,50.151,8.498\O,20.788,65.641,22.952\H,
 21.109,65.259,22.085\H,20.216,66.45,22.816\O,36.7,18.604,15.72\H,36.5,
 18.569,16.699\H,36.656,17.664,15.382\O,61.88,38.399,-2.172\H,62.122,38
 .109,-3.098\H,61.239,39.161,-2.266\O,54.043,36.403,1.083\H,54.477,36.1
 75,1.955\H,53.27,37.027,1.201\O,33.993,20.548,14.992\H,34.187,21.529,1
 4.982\H,33.146,20.338,15.481\O,39.798,28.225,31.203\H,40.532,27.749,31
 .687\H,39.144,28.645,31.832\O,40.793,56.259,30.801\H,41.714,56.516,31.
 093\H,40.375,57.078,30.408\O,45.245,20.808,10.826\H,44.419,21.362,10.9
 29\H,45.083,19.848,11.053\O,17.479,41.127,14.031\H,17.704,40.168,13.85
 7\H,18.294,41.676,14.215\O,22.82,30.293,32.485\H,23.539,30.821,32.033\
 H,22.95,30.255,33.476\O,24.25,64.7,15.681\H,24.92,64.754,16.421\H,23.8
 76,65.597,15.447\O,41.951,56.559,19.782\H,42.33,57.146,20.498\H,41.085
 ,56.142,20.058\O,21.627,23.887,19.851\H,21.992,24.452,19.112\H,21.417,
 22.959,19.544\O,15.58,51.162,15.858\H,14.678,51.024,16.267\H,15.839,52
 .128,15.837\O,43.765,49.871,3.889\H,44.55,49.754,3.28\H,42.986,49.428,
 3.445\O,64.667,38.512,0.526\H,64.557,38.381,1.511\H,63.802,38.405,0.03
 5\O,24.214,28.185,33.345\H,24.35,29.038,32.842\H,23.686,28.324,34.183\
 O,19.167,26.485,24.459\H,18.412,25.872,24.692\H,19.853,25.931,23.987\O
 ,21.923,57.387,9.515\H,22.553,57.827,10.155\H,21.946,57.924,8.671\O,37
 .38,32.717,35.566\H,37.713,31.938,36.097\H,38.145,33.354,35.476\O,30.1
 07,26.573,35.925\H,30.865,26.941,35.386\H,30.304,26.584,36.905\O,46.26
 3,19.897,24.638\H,46.161,20.115,25.609\H,46.465,18.929,24.491\O,12.406
 ,45.811,11.452\H,12.914,46.667,11.542\H,11.528,45.844,11.93\O,32.141,6
 1.344,19.41\H,31.913,61.885,20.22\H,32.691,60.541,19.638\O,46.329,28.6
 71,32.553\H,46.648,28.948,33.459\H,45.84,27.799,32.578\O,38.124,55.009
 ,39.34\H,37.204,54.623,39.281\H,38.444,55.073,40.285\O,19.5,58.755,22.
 841\H,18.517,58.855,22.685\H,19.627,58.646,23.827\O,51.042,45.894,4.70
 1\H,50.243,45.703,4.131\H,50.862,45.721,5.669\O,31.963,19.766,16.229\H
 ,32.163,18.865,16.614\H,31.682,20.35,16.99\O,26.853,70.257,17.225\H,26
 .258,70.588,16.492\H,26.338,70.345,18.077\O,18.01,38.868,13.621\H,18.5
 38,38.138,14.056\H,17.05,38.616,13.501\O,18.062,29.952,19.193\H,18.802
 ,30.593,18.99\H,17.161,30.363,19.051\O,32.154,27.713,1.735\H,31.356,28
 .301,1.867\H,32.488,27.741,0.793\O,46.284,22.683,1.463\H,46.519,23.62,
 1.206\H,47.046,22.052,1.318\O,48.193,54.76,24.552\H,49.086,54.46,24.88
 8\H,47.935,55.653,24.92\O,19.182,40.715,27.156\H,19.216,41.467,26.498\
 H,18.302,40.241,27.138\O,42.919,58.059,21.613\H,42.232,58.619,22.077\H
 ,43.65,58.678,21.324\O,15.277,45.415,19.344\H,16.084,45.021,19.783\H,1
 4.468,44.839,19.46\O,27.033,34.629,3.609\H,27.969,34.41,3.333\H,26.523
 ,35.086,2.88\O,19.496,37.154,33.605\H,18.701,36.871,33.069\H,19.71,36.
 4,34.226\O,28.65,56.921,6.912\H,28.735,57.183,7.873\H,27.881,57.379,6.
 465\O,63.562,44.917,29.378\H,63.55,44.508,28.466\H,64.189,45.694,29.43
 2\O,24.383,59.095,12.155\H,23.96,59.485,12.973\H,24.9,59.777,11.639\O,
 39.04,46.411,1.379\H,39.342,45.485,1.606\H,38.181,46.648,1.833\O,40.35
 7,19.544,11.95\H,40.391,20.105,12.777\H,41.25,19.153,11.725\O,16.254,4
 3.414,17.475\H,16.738,43.558,18.338\H,15.536,44.095,17.329\O,31.576,9.
 454,26.979\H,30.746,9.997,26.85\H,31.482,8.798,27.728\O,21.267,54.801,
 25.717\H,20.708,54.296,25.059\H,22.111,54.279,25.84\O,36.134,34.259,-1
 .852\H,35.299,34.785,-1.692\H,36.305,33.729,-1.022\O,52.467,31.44,23.2
 \H,53.283,31.425,23.778\H,51.942,30.592,23.272\O,29.26,33.545,3.572\H,
 29.042,32.635,3.218\H,29.574,33.513,4.521\O,21.292,59.955,13.373\H,21.
 435,59.61,14.3\H,22.143,59.985,12.848\O,49.913,22.916,-0.266\H,50.599,
 23.5,0.167\H,50.361,22.468,-1.039\O,45.897,46.827,35.015\H,46.046,47.3
 21,35.872\H,46.771,46.411,34.765\O,22.368,36.317,39.555\H,23.365,36.24
 4,39.545\H,21.934,35.594,39.018\\Version=ES64L-G16RevB.01\HF=0.0710404
 \RMSD=0.000e+00\RMSF=4.315e-04\Dipole=-93.11978,55.6159382,-15.7164425
 \PG=C01 [X(C1700H3369Mg1N454O848S17Zn1)]\\@
 Punch of MOs requested, but none found.


 THE LENGTH OF A MEETING IS PROPORTIONAL TO THE
 SQUARE OF THE PARTICIPANTS.
 Job cpu time:       0 days  0 hours  2 minutes 59.2 seconds.
 Elapsed time:       0 days  0 hours  0 minutes 20.7 seconds.
 File lengths (MBytes):  RWF=   1508 Int=      0 D2E=      0 Chk=   1484 Scr=      1
 Normal termination of Gaussian 16 at Sun Dec 24 02:46:45 2023.
