      -----------------------------------------------------------      
     |                   =====================                   |     
     |                           x T B                           |     
     |                   =====================                   |     
     |                         S. Grimme                         |     
     |          Mulliken Center for Theoretical Chemistry        |     
     |                    University of Bonn                     |     
      -----------------------------------------------------------      

   * xtb version 6.6.0 (2ccbbd7) compiled by 'conda@6fe65c42fc39' on 2023-02-10

   xtb is free software: you can redistribute it and/or modify it under
   the terms of the GNU Lesser General Public License as published by
   the Free Software Foundation, either version 3 of the License, or
   (at your option) any later version.
   
   xtb is distributed in the hope that it will be useful,
   but WITHOUT ANY WARRANTY; without even the implied warranty of
   MERCHANTABILITY or FITNESS FOR A PARTICULAR PURPOSE.  See the
   GNU Lesser General Public License for more details.
   
   Cite this work as:
   * C. Bannwarth, E. Caldeweyher, S. Ehlert, A. Hansen, P. Pracht,
     J. Seibert, S. Spicher, S. Grimme, WIREs Comput. Mol. Sci., 2020, 11,
     e01493. DOI: 10.1002/wcms.1493
   
   for GFN2-xTB:
   * C. Bannwarth, S. Ehlert and S. Grimme., J. Chem. Theory Comput., 2019,
     15, 1652-1671. DOI: 10.1021/acs.jctc.8b01176
   for GFN1-xTB:
   * S. Grimme, C. Bannwarth, P. Shushkov, J. Chem. Theory Comput., 2017,
     13, 1989-2009. DOI: 10.1021/acs.jctc.7b00118
   for GFN0-xTB:
   * P. Pracht, E. Caldeweyher, S. Ehlert, S. Grimme, ChemRxiv, 2019, preprint.
     DOI: 10.26434/chemrxiv.8326202.v1
   for GFN-FF:
   * S. Spicher and S. Grimme, Angew. Chem. Int. Ed., 2020, 59, 15665-15673.
     DOI: 10.1002/anie.202004239
   
   for ALPB and GBSA implicit solvation:
   * S. Ehlert, M. Stahn, S. Spicher, S. Grimme, J. Chem. Theory Comput.,
     2021, 17, 4250-4261. DOI: 10.1021/acs.jctc.1c00471
   
   for DFT-D4:
   * E. Caldeweyher, C. Bannwarth and S. Grimme, J. Chem. Phys., 2017,
     147, 034112. DOI: 10.1063/1.4993215
   * E. Caldeweyher, S. Ehlert, A. Hansen, H. Neugebauer, S. Spicher,
     C. Bannwarth and S. Grimme, J. Chem. Phys., 2019, 150, 154122.
     DOI: 10.1063/1.5090222
   * E. Caldeweyher, J.-M. Mewes, S. Ehlert and S. Grimme, Phys. Chem. Chem. Phys.
     2020, 22, 8499-8512. DOI: 10.1039/D0CP00502A
   
   for sTDA-xTB:
   * S. Grimme and C. Bannwarth, J. Chem. Phys., 2016, 145, 054103.
     DOI: 10.1063/1.4959605
   
   in the mass-spec context:
   * V. Asgeirsson, C. Bauer and S. Grimme, Chem. Sci., 2017, 8, 4879.
     DOI: 10.1039/c7sc00601b
   * J. Koopman and S. Grimme, ACS Omega 2019, 4, 12, 15120-15133.
     DOI: 10.1021/acsomega.9b02011
   
   for metadynamics refer to:
   * S. Grimme, J. Chem. Theory Comput., 2019, 155, 2847-2862
     DOI: 10.1021/acs.jctc.9b00143
   
   for SPH calculations refer to:
   * S. Spicher and S. Grimme, J. Chem. Theory Comput., 2021, 17, 1701-1714
     DOI: 10.1021/acs.jctc.0c01306
   
   with help from (in alphabetical order)
   P. Atkinson, C. Bannwarth, F. Bohle, G. Brandenburg, E. Caldeweyher
   M. Checinski, S. Dohm, S. Ehlert, S. Ehrlich, I. Gerasimov, C. Hölzer
   A. Katbashev, J. Koopman, C. Lavigne, S. Lehtola, F. März, M. Müller,
   F. Musil, H. Neugebauer, J. Pisarek, C. Plett, P. Pracht, F. Pultar,
   J. Seibert, P. Shushkov, S. Spicher, M. Stahn, M. Steiner, T. Strunk,
   J. Stückrath, T. Rose, and J. Unsleber
   
 * started run on 2023/12/26 at 23:25:34.892     

           -------------------------------------------------
          |                Calculation Setup                |
           -------------------------------------------------

          program call               : xtb gau_xtb.xyz --chrg 1 --uhf 0 --grad
          hostname                   : node34
          coordinate file            : gau_xtb.xyz
          omp threads                :                    12

   ID    Z sym.   atoms
    1    6 C      1-25
    2    7 N      26-28
    3    1 H      29-58

           -------------------------------------------------
          |                 G F N 2 - x T B                 |
           -------------------------------------------------

        Reference                      10.1021/acs.jctc.8b01176
      * Hamiltonian:
        H0-scaling (s, p, d)           1.850000    2.230000    2.230000
        zeta-weighting                 0.500000
      * Dispersion:
        s8                             2.700000
        a1                             0.520000
        a2                             5.000000
        s9                             5.000000
      * Repulsion:
        kExp                           1.500000    1.000000
        rExp                           1.000000
      * Coulomb:
        alpha                          2.000000
        third order                    shell-resolved
        anisotropic                    true
        a3                             3.000000
        a5                             4.000000
        cn-shift                       1.200000
        cn-exp                         4.000000
        max-rad                        5.000000


          ...................................................
          :                      SETUP                      :
          :.................................................:
          :  # basis functions                 142          :
          :  # atomic orbitals                 142          :
          :  # shells                           86          :
          :  # electrons                       144          :
          :  max. iterations                   250          :
          :  Hamiltonian                  GFN2-xTB          :
          :  restarted?                      false          :
          :  GBSA solvation                  false          :
          :  PC potential                    false          :
          :  electronic temp.          300.0000000     K    :
          :  accuracy                    1.0000000          :
          :  -> integral cutoff          0.2500000E+02      :
          :  -> integral neglect         0.1000000E-07      :
          :  -> SCF convergence          0.1000000E-05 Eh   :
          :  -> wf. convergence          0.1000000E-03 e    :
          :  Broyden damping             0.4000000          :
          ...................................................

 iter      E             dE          RMSdq      gap      omega  full diag
   1    -78.3882337 -0.783882E+02  0.349E+00    1.12       0.0  T
   2    -78.4714003 -0.831666E-01  0.253E+00    1.51       1.0  T
   3    -78.3940669  0.773334E-01  0.135E+00    0.88       1.0  T
   4    -78.4254651 -0.313982E-01  0.104E+00    1.66       1.0  T
   5    -78.5226320 -0.971669E-01  0.155E-01    1.23       1.0  T
   6    -78.5231343 -0.502273E-03  0.545E-02    1.24       1.0  T
   7    -78.5231469 -0.125616E-04  0.309E-02    1.22       1.0  T
   8    -78.5231723 -0.254767E-04  0.872E-03    1.23       1.5  T
   9    -78.5231770 -0.470084E-05  0.287E-03    1.23       4.6  T
  10    -78.5231773 -0.260608E-06  0.795E-04    1.23      16.5  T
  11    -78.5231773 -0.256643E-07  0.344E-04    1.23      38.2  T

   *** convergence criteria satisfied after 11 iterations ***

         #    Occupation            Energy/Eh            Energy/eV
      -------------------------------------------------------------
         1        2.0000           -0.7567128             -20.5912
       ...           ...                  ...                  ...
        66        2.0000           -0.5058775             -13.7656
        67        2.0000           -0.4994784             -13.5915
        68        2.0000           -0.4969678             -13.5232
        69        2.0000           -0.4942232             -13.4485
        70        2.0000           -0.4707956             -12.8110
        71        2.0000           -0.4461061             -12.1392
        72        2.0000           -0.4429172             -12.0524 (HOMO)
        73                         -0.3977987             -10.8247 (LUMO)
        74                         -0.3166291              -8.6159
        75                         -0.3135760              -8.5328
        76                         -0.3126426              -8.5074
        77                         -0.3108292              -8.4581
       ...                                ...                  ...
       142                          0.5751789              15.6514
      -------------------------------------------------------------
                  HL-Gap            0.0451185 Eh            1.2277 eV
             Fermi-level           -0.4203417 Eh          -11.4381 eV

 SCC (total)                   0 d,  0 h,  0 min,  0.093 sec
 SCC setup                      ...        0 min,  0.001 sec (  0.605%)
 Dispersion                     ...        0 min,  0.002 sec (  1.972%)
 classical contributions        ...        0 min,  0.000 sec (  0.215%)
 integral evaluation            ...        0 min,  0.006 sec (  6.461%)
 iterations                     ...        0 min,  0.075 sec ( 80.779%)
 molecular gradient             ...        0 min,  0.009 sec (  9.254%)
 printout                       ...        0 min,  0.000 sec (  0.437%)

         :::::::::::::::::::::::::::::::::::::::::::::::::::::
         ::                     SUMMARY                     ::
         :::::::::::::::::::::::::::::::::::::::::::::::::::::
         :: total energy             -77.226089117135 Eh    ::
         :: gradient norm              0.040367067906 Eh/a0 ::
         :: HOMO-LUMO gap              1.227735636703 eV    ::
         ::.................................................::
         :: SCC energy               -78.523177326782 Eh    ::
         :: -> isotropic ES            0.050998259865 Eh    ::
         :: -> anisotropic ES         -0.002387897667 Eh    ::
         :: -> anisotropic XC          0.047516807515 Eh    ::
         :: -> dispersion             -0.062067213260 Eh    ::
         :: repulsion energy           1.297427802058 Eh    ::
         :: add. restraining           0.000000000000 Eh    ::
         :: total charge               1.000000000003 e     ::
         :::::::::::::::::::::::::::::::::::::::::::::::::::::

           -------------------------------------------------
          |                Property Printout                |
           -------------------------------------------------

    * Orbital Energies and Occupations

         #    Occupation            Energy/Eh            Energy/eV
      -------------------------------------------------------------
         1        2.0000           -0.7567128             -20.5912
       ...           ...                  ...                  ...
        60        2.0000           -0.5312822             -14.4569
        61        2.0000           -0.5307911             -14.4436
        62        2.0000           -0.5195411             -14.1374
        63        2.0000           -0.5162263             -14.0472
        64        2.0000           -0.5111709             -13.9097
        65        2.0000           -0.5067084             -13.7882
        66        2.0000           -0.5058775             -13.7656
        67        2.0000           -0.4994784             -13.5915
        68        2.0000           -0.4969678             -13.5232
        69        2.0000           -0.4942232             -13.4485
        70        2.0000           -0.4707956             -12.8110
        71        2.0000           -0.4461061             -12.1392
        72        2.0000           -0.4429172             -12.0524 (HOMO)
        73                         -0.3977987             -10.8247 (LUMO)
        74                         -0.3166291              -8.6159
        75                         -0.3135760              -8.5328
        76                         -0.3126426              -8.5074
        77                         -0.3108292              -8.4581
        78                         -0.3097951              -8.4300
        79                         -0.2640332              -7.1847
        80                         -0.1925045              -5.2383
        81                         -0.1903418              -5.1795
        82                         -0.1628674              -4.4318
        83                         -0.1055617              -2.8725
       ...                                ...                  ...
       142                          0.5751789              15.6514
      -------------------------------------------------------------
                  HL-Gap            0.0451185 Eh            1.2277 eV
             Fermi-level           -0.4203417 Eh          -11.4381 eV

     #   Z          covCN         q      C6AA      α(0)
     1   6 C        2.964     0.029    27.359     8.579
     2   6 C        2.967     0.002    27.981     8.677
     3   6 C        2.916    -0.026    28.654     8.778
     4   6 C        2.916    -0.056    29.403     8.892
     5   6 C        2.908     0.074    26.336     8.415
     6   6 C        2.914    -0.056    29.392     8.890
     7   6 C        2.918    -0.025    28.616     8.772
     8   6 C        2.974     0.000    28.019     8.683
     9   6 C        2.920    -0.027    28.668     8.780
    10   6 C        2.919    -0.060    29.483     8.904
    11   6 C        2.909     0.073    26.376     8.421
    12   6 C        2.913    -0.056    29.392     8.890
    13   6 C        2.922    -0.026    28.651     8.778
    14   6 C        2.963    -0.000    28.030     8.684
    15   6 C        2.914    -0.024    28.599     8.769
    16   6 C        2.909    -0.057    29.418     8.894
    17   6 C        2.907     0.073    26.365     8.419
    18   6 C        2.910    -0.057    29.404     8.892
    19   6 C        2.913    -0.026    28.644     8.776
    20   6 C        3.694    -0.059    21.827     6.684
    21   6 C        3.696    -0.059    21.807     6.680
    22   6 C        3.699    -0.059    21.805     6.679
    23   6 C        3.697    -0.060    21.821     6.682
    24   6 C        3.697    -0.059    21.805     6.680
    25   6 C        3.696    -0.060    21.832     6.684
    26   7 N        2.733    -0.039    21.993     6.965
    27   7 N        2.734    -0.046    22.127     6.986
    28   7 N        2.733    -0.039    21.994     6.965
    29   1 H        0.924     0.061     2.183     2.310
    30   1 H        0.924     0.066     2.132     2.283
    31   1 H        0.925     0.070     2.090     2.261
    32   1 H        0.924     0.062     2.174     2.306
    33   1 H        0.924     0.064     2.155     2.296
    34   1 H        0.925     0.070     2.090     2.261
    35   1 H        0.924     0.061     2.185     2.312
    36   1 H        0.925     0.068     2.109     2.271
    37   1 H        0.925     0.065     2.140     2.288
    38   1 H        0.924     0.056     2.241     2.341
    39   1 H        0.925     0.065     2.136     2.285
    40   1 H        0.925     0.066     2.134     2.285
    41   1 H        0.925     0.066     2.125     2.280
    42   1 H        0.924     0.060     2.193     2.316
    43   1 H        0.925     0.070     2.091     2.261
    44   1 H        0.925     0.065     2.138     2.287
    45   1 H        0.924     0.063     2.160     2.299
    46   1 H        0.925     0.070     2.082     2.256
    47   1 H        0.926     0.047     2.362     2.403
    48   1 H        0.926     0.048     2.350     2.397
    49   1 H        0.926     0.047     2.356     2.400
    50   1 H        0.926     0.044     2.402     2.423
    51   1 H        0.926     0.043     2.412     2.428
    52   1 H        0.926     0.046     2.370     2.408
    53   1 H        0.926     0.047     2.362     2.403
    54   1 H        0.926     0.042     2.419     2.432
    55   1 H        0.926     0.048     2.347     2.395
    56   1 H        0.926     0.046     2.366     2.405
    57   1 H        0.926     0.047     2.358     2.401
    58   1 H        0.926     0.049     2.334     2.389

 Mol. C6AA /au·bohr⁶  :      35298.241252
 Mol. C8AA /au·bohr⁸  :     838549.448715
 Mol. α(0) /au        :        296.981582


Wiberg/Mayer (AO) data.
largest (>0.10) Wiberg bond orders for each atom

 ---------------------------------------------------------------------------
     #   Z sym  total        # sym  WBO       # sym  WBO       # sym  WBO
 ---------------------------------------------------------------------------
     1   6 C    3.868 --     2 C    1.234    14 C    1.212     8 C    1.171
     2   6 C    3.978 --     3 C    1.276     7 C    1.272     1 C    1.234
     3   6 C    3.970 --     4 C    1.556     2 C    1.276    58 H    0.963
     4   6 C    3.973 --     3 C    1.556     5 C    1.264    57 H    0.964
     5   6 C    3.944 --     4 C    1.264    26 N    1.262     6 C    1.262
     6   6 C    3.971 --     7 C    1.558     5 C    1.262    56 H    0.965
     7   6 C    3.969 --     6 C    1.558     2 C    1.272    55 H    0.963
     8   6 C    3.973 --    13 C    1.302     9 C    1.294     1 C    1.171
     9   6 C    3.973 --    10 C    1.537     8 C    1.294    54 H    0.966
    10   6 C    3.973 --     9 C    1.537    11 C    1.271    53 H    0.962
    11   6 C    3.952 --    12 C    1.273    10 C    1.271    27 N    1.248
    12   6 C    3.972 --    13 C    1.534    11 C    1.273    52 H    0.964
    13   6 C    3.973 --    12 C    1.534     8 C    1.302    51 H    0.968
    14   6 C    3.973 --    19 C    1.281    15 C    1.278     1 C    1.212
    15   6 C    3.970 --    16 C    1.557    14 C    1.278    50 H    0.967
    16   6 C    3.972 --    15 C    1.557    17 C    1.258    49 H    0.964
    17   6 C    3.947 --    18 C    1.265    28 N    1.263    16 C    1.258
    18   6 C    3.972 --    19 C    1.551    17 C    1.265    48 H    0.964
    19   6 C    3.968 --    18 C    1.551    14 C    1.281    47 H    0.965
    20   6 C    3.965 --    26 N    1.002    46 H    0.978    45 H    0.973
                            44 H    0.971
    21   6 C    3.966 --    26 N    1.004    43 H    0.978    42 H    0.971
                            41 H    0.970
    22   6 C    3.968 --    27 N    1.005    39 H    0.976    40 H    0.975
                            38 H    0.970
    23   6 C    3.966 --    27 N    1.003    36 H    0.974    37 H    0.973
                            35 H    0.972
    24   6 C    3.966 --    28 N    1.005    34 H    0.977    33 H    0.973
                            32 H    0.970
    25   6 C    3.966 --    28 N    1.002    31 H    0.978    30 H    0.975
                            29 H    0.970
    26   7 N    3.445 --     5 C    1.262    21 C    1.004    20 C    1.002
    27   7 N    3.437 --    11 C    1.248    22 C    1.005    23 C    1.003
    28   7 N    3.449 --    17 C    1.263    24 C    1.005    25 C    1.002
    29   1 H    0.989 --    25 C    0.970
    30   1 H    0.993 --    25 C    0.975
    31   1 H    0.994 --    25 C    0.978
    32   1 H    0.988 --    24 C    0.970
    33   1 H    0.993 --    24 C    0.973
    34   1 H    0.994 --    24 C    0.977
    35   1 H    0.990 --    23 C    0.972
    36   1 H    0.995 --    23 C    0.974
    37   1 H    0.990 --    23 C    0.973
    38   1 H    0.989 --    22 C    0.970
    39   1 H    0.995 --    22 C    0.976
    40   1 H    0.991 --    22 C    0.975
    41   1 H    0.991 --    21 C    0.970
    42   1 H    0.991 --    21 C    0.971
    43   1 H    0.995 --    21 C    0.978
    44   1 H    0.991 --    20 C    0.971
    45   1 H    0.991 --    20 C    0.973
    46   1 H    0.995 --    20 C    0.978
    47   1 H    0.997 --    19 C    0.965
    48   1 H    0.997 --    18 C    0.964
    49   1 H    0.997 --    16 C    0.964
    50   1 H    0.997 --    15 C    0.967
    51   1 H    0.997 --    13 C    0.968
    52   1 H    0.997 --    12 C    0.964
    53   1 H    0.997 --    10 C    0.962
    54   1 H    0.997 --     9 C    0.966
    55   1 H    0.997 --     7 C    0.963
    56   1 H    0.997 --     6 C    0.965
    57   1 H    0.997 --     4 C    0.964
    58   1 H    0.997 --     3 C    0.963
 ---------------------------------------------------------------------------

Topologies differ in total number of bonds
Writing topology from bond orders to xtbtopo.mol

molecular dipole:
                 x           y           z       tot (Debye)
 q only:       19.776     -56.632     -57.662
   full:       19.755     -56.643     -57.649     211.471
molecular quadrupole (traceless):
                xx          xy          yy          xz          yz          zz
 q only:    -2901.120   -1695.072    1372.695   -1659.819    4910.385    1528.424
  q+dip:    -2903.790   -1694.694    1377.895   -1655.281    4911.146    1525.894
   full:    -2902.674   -1693.727    1376.020   -1657.413    4910.243    1526.654


           -------------------------------------------------
          | TOTAL ENERGY              -77.226089117135 Eh   |
          | GRADIENT NORM               0.040367067906 Eh/α |
          | HOMO-LUMO GAP               1.227735636703 eV   |
           -------------------------------------------------

------------------------------------------------------------------------
 * finished run on 2023/12/26 at 23:25:35.067     
------------------------------------------------------------------------
 total:
 * wall-time:     0 d,  0 h,  0 min,  0.175 sec
 *  cpu-time:     0 d,  0 h,  0 min,  3.302 sec
 * ratio c/w:    18.892 speedup
 SCF:
 * wall-time:     0 d,  0 h,  0 min,  0.094 sec
 *  cpu-time:     0 d,  0 h,  0 min,  2.122 sec
 * ratio c/w:    22.660 speedup

