      -----------------------------------------------------------      
     |                   =====================                   |     
     |                           x T B                           |     
     |                   =====================                   |     
     |                         S. Grimme                         |     
     |          Mulliken Center for Theoretical Chemistry        |     
     |                    University of Bonn                     |     
      -----------------------------------------------------------      

   * xtb version 6.6.0 (2ccbbd7) compiled by 'conda@6fe65c42fc39' on 2023-02-10

   xtb is free software: you can redistribute it and/or modify it under
   the terms of the GNU Lesser General Public License as published by
   the Free Software Foundation, either version 3 of the License, or
   (at your option) any later version.
   
   xtb is distributed in the hope that it will be useful,
   but WITHOUT ANY WARRANTY; without even the implied warranty of
   MERCHANTABILITY or FITNESS FOR A PARTICULAR PURPOSE.  See the
   GNU Lesser General Public License for more details.
   
   Cite this work as:
   * C. Bannwarth, E. Caldeweyher, S. Ehlert, A. Hansen, P. Pracht,
     J. Seibert, S. Spicher, S. Grimme, WIREs Comput. Mol. Sci., 2020, 11,
     e01493. DOI: 10.1002/wcms.1493
   
   for GFN2-xTB:
   * C. Bannwarth, S. Ehlert and S. Grimme., J. Chem. Theory Comput., 2019,
     15, 1652-1671. DOI: 10.1021/acs.jctc.8b01176
   for GFN1-xTB:
   * S. Grimme, C. Bannwarth, P. Shushkov, J. Chem. Theory Comput., 2017,
     13, 1989-2009. DOI: 10.1021/acs.jctc.7b00118
   for GFN0-xTB:
   * P. Pracht, E. Caldeweyher, S. Ehlert, S. Grimme, ChemRxiv, 2019, preprint.
     DOI: 10.26434/chemrxiv.8326202.v1
   for GFN-FF:
   * S. Spicher and S. Grimme, Angew. Chem. Int. Ed., 2020, 59, 15665-15673.
     DOI: 10.1002/anie.202004239
   
   for ALPB and GBSA implicit solvation:
   * S. Ehlert, M. Stahn, S. Spicher, S. Grimme, J. Chem. Theory Comput.,
     2021, 17, 4250-4261. DOI: 10.1021/acs.jctc.1c00471
   
   for DFT-D4:
   * E. Caldeweyher, C. Bannwarth and S. Grimme, J. Chem. Phys., 2017,
     147, 034112. DOI: 10.1063/1.4993215
   * E. Caldeweyher, S. Ehlert, A. Hansen, H. Neugebauer, S. Spicher,
     C. Bannwarth and S. Grimme, J. Chem. Phys., 2019, 150, 154122.
     DOI: 10.1063/1.5090222
   * E. Caldeweyher, J.-M. Mewes, S. Ehlert and S. Grimme, Phys. Chem. Chem. Phys.
     2020, 22, 8499-8512. DOI: 10.1039/D0CP00502A
   
   for sTDA-xTB:
   * S. Grimme and C. Bannwarth, J. Chem. Phys., 2016, 145, 054103.
     DOI: 10.1063/1.4959605
   
   in the mass-spec context:
   * V. Asgeirsson, C. Bauer and S. Grimme, Chem. Sci., 2017, 8, 4879.
     DOI: 10.1039/c7sc00601b
   * J. Koopman and S. Grimme, ACS Omega 2019, 4, 12, 15120-15133.
     DOI: 10.1021/acsomega.9b02011
   
   for metadynamics refer to:
   * S. Grimme, J. Chem. Theory Comput., 2019, 155, 2847-2862
     DOI: 10.1021/acs.jctc.9b00143
   
   for SPH calculations refer to:
   * S. Spicher and S. Grimme, J. Chem. Theory Comput., 2021, 17, 1701-1714
     DOI: 10.1021/acs.jctc.0c01306
   
   with help from (in alphabetical order)
   P. Atkinson, C. Bannwarth, F. Bohle, G. Brandenburg, E. Caldeweyher
   M. Checinski, S. Dohm, S. Ehlert, S. Ehrlich, I. Gerasimov, C. Hölzer
   A. Katbashev, J. Koopman, C. Lavigne, S. Lehtola, F. März, M. Müller,
   F. Musil, H. Neugebauer, J. Pisarek, C. Plett, P. Pracht, F. Pultar,
   J. Seibert, P. Shushkov, S. Spicher, M. Stahn, M. Steiner, T. Strunk,
   J. Stückrath, T. Rose, and J. Unsleber
   
 * started run on 2024/01/09 at 22:34:04.028     

           -------------------------------------------------
          |                Calculation Setup                |
           -------------------------------------------------

          program call               : xtb gau_xtb.xyz --chrg -2 --uhf 0 --grad
          hostname                   : node37
          coordinate file            : gau_xtb.xyz
          omp threads                :                    12

   ID    Z sym.   atoms
    1    1 H      1, 10-22, 31-41, 48-54, 63-73, 79-83, 92-97, 107-112,
                  121-133, 148-157, 166-176, 185-195, 204-216, 224-234,
                  246-260, 273-283, 292-304, 313-325, 334-346, 352-358,
                  370-380, 389-401, 412-417, 447-476, 478, 479, 481, 482
    2    7 N      2, 23, 42, 55, 74, 84, 98, 113, 134, 142, 158, 177, 196,
                  217, 235, 242, 244, 245, 261, 284, 305, 326, 347, 359, 381,
                  402, 444
    3    6 C      3, 4, 6-9, 24, 25, 27-30, 43, 44, 46, 56, 57, 59-62, 75,
                  76, 78, 85, 86, 88, 89, 99, 100, 102-104, 114, 115,
                  117-120, 135, 136, 138-141, 143-147, 159, 160, 162, 163,
                  165, 178, 179, 181-184, 197, 198, 200-203, 218, 219,
                  221-223, 236, 237, 239-241, 243, 262, 263, 265-271, 285,
                  286, 288-291, 306, 307, 309-312, 327, 328, 330-333, 348,
                  349, 351, 360, 361, 363-369, 382, 383, 385-388, 403, 404,
                  406-408, 418-421, 423-438, 440-443, 445, 446
    4    8 O      5, 26, 45, 58, 77, 87, 90, 91, 101, 105, 106, 116, 137,
                  161, 180, 199, 220, 238, 264, 272, 287, 308, 329, 350, 362,
                  384, 405, 409-411, 422, 439, 477, 480
    5   16 S      47, 164

molecular fragmentation (1/2 indicates fragments):
111111111111111111111222222222222222222222222222222222222222222222222222
222222222222222222222222222222222222222222222222222222222222222222222222
222222222222222222222222222222222222222222222222222222222222222222222222
222222222222222222222222222222222222222222222222222222222222222222222222
222222222222222222222222222222222222222222222222222222222222222222222222
222222222222222222222222222222222222222222222222222222222222222222222222
22222222222222222222222222222222222222222222222222
# atoms in fragment 1/2:    21   461
 fragment masses (1/2) :      115.17     2987.87
CMA distance (Bohr)    :  17.864
constraining FC (au)   :  0.0500

           -------------------------------------------------
          |                 G F N 2 - x T B                 |
           -------------------------------------------------

        Reference                      10.1021/acs.jctc.8b01176
      * Hamiltonian:
        H0-scaling (s, p, d)           1.850000    2.230000    2.230000
        zeta-weighting                 0.500000
      * Dispersion:
        s8                             2.700000
        a1                             0.520000
        a2                             5.000000
        s9                             5.000000
      * Repulsion:
        kExp                           1.500000    1.000000
        rExp                           1.000000
      * Coulomb:
        alpha                          2.000000
        third order                    shell-resolved
        anisotropic                    true
        a3                             3.000000
        a5                             4.000000
        cn-shift                       1.200000
        cn-exp                         4.000000
        max-rad                        5.000000


          ...................................................
          :                      SETUP                      :
          :.................................................:
          :  # basis functions                1145          :
          :  # atomic orbitals                1143          :
          :  # shells                          701          :
          :  # electrons                      1234          :
          :  max. iterations                   250          :
          :  Hamiltonian                  GFN2-xTB          :
          :  restarted?                      false          :
          :  GBSA solvation                  false          :
          :  PC potential                    false          :
          :  electronic temp.          300.0000000     K    :
          :  accuracy                    1.0000000          :
          :  -> integral cutoff          0.2500000E+02      :
          :  -> integral neglect         0.1000000E-07      :
          :  -> SCF convergence          0.1000000E-05 Eh   :
          :  -> wf. convergence          0.1000000E-03 e    :
          :  Broyden damping             0.4000000          :
          ...................................................

 iter      E             dE          RMSdq      gap      omega  full diag
   1   -695.7710294 -0.695771E+03  0.407E+00    1.97       0.0  T
   2   -688.4065256  0.736450E+01  0.319E+00    0.07       1.0  T
   3   -681.8227154  0.658381E+01  0.352E+00    0.06       1.0  T
   4   -692.4191577 -0.105964E+02  0.254E+00    0.02       1.0  T
   5   -691.9355968  0.483561E+00  0.219E+00    0.05       1.0  T
   6   -696.9038081 -0.496821E+01  0.139E+00    0.89       1.0  T
   7   -697.1636456 -0.259837E+00  0.952E-01    0.39       1.0  T
   8   -695.7563202  0.140733E+01  0.136E+00    0.09       1.0  T
   9   -697.2442536 -0.148793E+01  0.658E-01    0.13       1.0  T
  10   -696.1583775  0.108588E+01  0.115E+00    0.18       1.0  T
  11   -697.2955138 -0.113714E+01  0.438E-01    0.14       1.0  T
  12   -693.5254385  0.377008E+01  0.160E+00    0.00       1.0  T
  13   -696.4031105 -0.287767E+01  0.100E+00    0.09       1.0  T
  14   -696.2783191  0.124791E+00  0.106E+00    0.00       1.0  T
  15   -696.9569128 -0.678594E+00  0.683E-01    0.04       1.0  T
  16   -692.6251726  0.433174E+01  0.186E+00    0.05       1.0  T
  17   -696.8467576 -0.422158E+01  0.735E-01    0.07       1.0  T
  18   -697.3137828 -0.467025E+00  0.356E-01    0.04       1.0  T
  19   -697.3086238  0.515900E-02  0.324E-01    0.36       1.0  T
  20   -697.2289536  0.796702E-01  0.488E-01    0.01       1.0  T
  21   -697.3857663 -0.156813E+00  0.251E-01    0.04       1.0  T
  22   -697.4140822 -0.283159E-01  0.141E-01    0.07       1.0  T
  23   -696.9837772  0.430305E+00  0.614E-01    0.03       1.0  T
  24   -696.5768674  0.406910E+00  0.880E-01    0.01       1.0  T
  25   -697.4027443 -0.825877E+00  0.157E-01    0.10       1.0  T
  26   -697.4048562 -0.211186E-02  0.148E-01    0.05       1.0  T
  27   -697.4204554 -0.155992E-01  0.117E-01    0.06       1.0  T
  28   -697.3756919  0.447635E-01  0.202E-01    0.13       1.0  T
  29   -697.4185654 -0.428735E-01  0.113E-01    0.09       1.0  T
  30   -697.4265689 -0.800356E-02  0.779E-02    0.08       1.0  T
  31   -697.4251078  0.146112E-02  0.798E-02    0.08       1.0  T
  32   -697.4220239  0.308393E-02  0.848E-02    0.09       1.0  T
  33   -697.4305754 -0.855150E-02  0.424E-02    0.08       1.0  T
  34   -697.4312067 -0.631337E-03  0.366E-02    0.07       1.0  T
  35   -697.4307908  0.415883E-03  0.406E-02    0.08       1.0  T
  36   -697.4318737 -0.108285E-02  0.281E-02    0.07       1.0  T
  37   -697.4319593 -0.855948E-04  0.258E-02    0.07       1.0  T
  38   -697.4323039 -0.344643E-03  0.209E-02    0.07       1.0  T
  39   -697.4321814  0.122521E-03  0.232E-02    0.07       1.0  T
  40   -697.4323095 -0.128073E-03  0.206E-02    0.07       1.0  T
  41   -697.4321012  0.208285E-03  0.240E-02    0.07       1.0  T
  42   -697.4323419 -0.240684E-03  0.191E-02    0.07       1.0  T
  43   -697.4323561 -0.142632E-04  0.185E-02    0.07       1.0  T
  44   -697.4325558 -0.199617E-03  0.120E-02    0.07       1.0  T
  45   -697.4326096 -0.537957E-04  0.898E-03    0.07       1.0  T
  46   -697.4326625 -0.528990E-04  0.442E-03    0.07       1.0  T
  47   -697.4326702 -0.775289E-05  0.298E-03    0.07       1.5  T
  48   -697.4326789 -0.867254E-05  0.140E-03    0.07       3.3  T
  49   -697.4326797 -0.809187E-06  0.125E-03    0.07       3.6  T
  50   -697.4326788  0.927181E-06  0.134E-03    0.07       3.4  T
  51   -697.4326804 -0.161935E-05  0.714E-04    0.07       6.4  T
  52   -697.4326808 -0.452297E-06  0.365E-04    0.07      12.5  T
  53   -697.4326808 -0.919124E-08  0.306E-04    0.07      14.9  T

   *** convergence criteria satisfied after 53 iterations ***

         #    Occupation            Energy/Eh            Energy/eV
      -------------------------------------------------------------
         1        2.0000           -0.6544159             -17.8076
       ...           ...                  ...                  ...
       611        2.0000           -0.2106158              -5.7311
       612        2.0000           -0.2088608              -5.6834
       613        1.9995           -0.2038404              -5.5468
       614        1.9984           -0.2026733              -5.5150
       615        1.8598           -0.1983441              -5.3972
       616        1.7834           -0.1978908              -5.3849
       617        1.3141           -0.1965056              -5.3472 (HOMO)
       618        0.2213           -0.1939077              -5.2765 (LUMO)
       619        0.2208           -0.1939056              -5.2764
       620        0.1698           -0.1936293              -5.2689
       621        0.1528           -0.1935198              -5.2659
       622        0.1286           -0.1933440              -5.2612
       ...           ...                  ...                  ...
      1143                          0.8113282              22.0774
      -------------------------------------------------------------
                  HL-Gap            0.0025979 Eh            0.0707 eV
             Fermi-level           -0.1958878 Eh           -5.3304 eV

 SCC (total)                   0 d,  0 h,  0 min, 22.866 sec
 SCC setup                      ...        0 min,  0.042 sec (  0.183%)
 Dispersion                     ...        0 min,  0.080 sec (  0.348%)
 classical contributions        ...        0 min,  0.009 sec (  0.041%)
 integral evaluation            ...        0 min,  0.176 sec (  0.772%)
 iterations                     ...        0 min, 20.557 sec ( 89.902%)
 molecular gradient             ...        0 min,  1.970 sec (  8.614%)
 printout                       ...        0 min,  0.032 sec (  0.138%)

         :::::::::::::::::::::::::::::::::::::::::::::::::::::
         ::                     SUMMARY                     ::
         :::::::::::::::::::::::::::::::::::::::::::::::::::::
         :: total energy            -688.266377393130 Eh    ::
         :: gradient norm              0.606882747043 Eh/a0 ::
         :: HOMO-LUMO gap              0.070691831009 eV    ::
         ::.................................................::
         :: SCC energy              -697.432680842725 Eh    ::
         :: -> isotropic ES            1.513302386672 Eh    ::
         :: -> anisotropic ES          0.062089712025 Eh    ::
         :: -> anisotropic XC          0.269935696611 Eh    ::
         :: -> dispersion             -0.610658267558 Eh    ::
         :: repulsion energy           9.104598581240 Eh    ::
         :: add. restraining           0.000000000000 Eh    ::
         :: total charge              -2.000000000000 e     ::
         :::::::::::::::::::::::::::::::::::::::::::::::::::::

           -------------------------------------------------
          |                Property Printout                |
           -------------------------------------------------

    * Orbital Energies and Occupations

         #    Occupation            Energy/Eh            Energy/eV
      -------------------------------------------------------------
         1        2.0000           -0.6544159             -17.8076
       ...           ...                  ...                  ...
       605        2.0000           -0.2331725              -6.3449
       606        2.0000           -0.2320795              -6.3152
       607        2.0000           -0.2222941              -6.0489
       608        2.0000           -0.2208689              -6.0101
       609        2.0000           -0.2180454              -5.9333
       610        2.0000           -0.2141530              -5.8274
       611        2.0000           -0.2106158              -5.7311
       612        2.0000           -0.2088608              -5.6834
       613        1.9995           -0.2038404              -5.5468
       614        1.9984           -0.2026733              -5.5150
       615        1.8598           -0.1983441              -5.3972
       616        1.7834           -0.1978908              -5.3849
       617        1.3141           -0.1965056              -5.3472 (HOMO)
       618        0.2213           -0.1939077              -5.2765 (LUMO)
       619        0.2208           -0.1939056              -5.2764
       620        0.1698           -0.1936293              -5.2689
       621        0.1528           -0.1935198              -5.2659
       622        0.1286           -0.1933440              -5.2612
       623        0.0805           -0.1928752              -5.2484
       624        0.0653           -0.1926689              -5.2428
       625        0.0024           -0.1894870              -5.1562
       626        0.0014           -0.1890195              -5.1435
       627        0.0007           -0.1883626              -5.1256
       628        0.0005           -0.1879943              -5.1156
       ...           ...                  ...                  ...
      1143                          0.8113282              22.0774
      -------------------------------------------------------------
                  HL-Gap            0.0025979 Eh            0.0707 eV
             Fermi-level           -0.1958878 Eh           -5.3304 eV

     #   Z          covCN         q      C6AA      α(0)
     1   1 H        0.862     0.144     1.443     1.882
     2   7 N        2.635    -0.353    29.093     8.011
     3   6 C        3.784     0.038    19.952     6.363
     4   6 C        2.767     0.163    24.458     8.099
     5   8 O        0.856    -0.418    22.052     6.296
     6   6 C        3.812    -0.063    21.702     6.631
     7   6 C        3.853    -0.020    20.897     6.502
     8   6 C        3.754    -0.107    22.609     6.780
     9   6 C        3.759    -0.104    22.545     6.769
    10   1 H        0.860     0.138     1.488     1.911
    11   1 H        0.925     0.043     2.409     2.427
    12   1 H        0.924     0.035     2.519     2.482
    13   1 H        0.924     0.050     2.322     2.383
    14   1 H        0.928     0.045     2.386     2.415
    15   1 H        0.925     0.045     2.379     2.412
    16   1 H        0.925     0.034     2.524     2.484
    17   1 H        0.925     0.034     2.537     2.491
    18   1 H        0.925     0.033     2.541     2.493
    19   1 H        0.924     0.028     2.609     2.526
    20   1 H        0.925     0.036     2.507     2.476
    21   1 H        0.928     0.019     2.746     2.591
    22   1 H        0.862     0.145     1.432     1.874
    23   7 N        2.633    -0.353    29.090     8.010
    24   6 C        3.786     0.028    20.117     6.388
    25   6 C        2.756     0.258    22.662     7.795
    26   8 O        0.859    -0.469    23.117     6.446
    27   6 C        3.815    -0.065    21.732     6.635
    28   6 C        3.853    -0.010    20.721     6.474
    29   6 C        3.759    -0.104    22.542     6.769
    30   6 C        3.758    -0.109    22.639     6.784
    31   1 H        0.860     0.133     1.521     1.932
    32   1 H        0.924     0.052     2.300     2.371
    33   1 H        0.924     0.036     2.497     2.471
    34   1 H        0.924     0.053     2.279     2.361
    35   1 H        0.925     0.031     2.573     2.509
    36   1 H        0.925     0.040     2.455     2.450
    37   1 H        0.925     0.031     2.574     2.509
    38   1 H        0.925     0.028     2.617     2.530
    39   1 H        0.925     0.041     2.430     2.438
    40   1 H        0.925     0.030     2.593     2.518
    41   1 H        0.925     0.043     2.416     2.431
    42   7 N        2.687    -0.179    24.876     7.408
    43   6 C        3.810     0.027    20.120     6.385
    44   6 C        2.766     0.197    23.808     7.991
    45   8 O        0.856    -0.304    19.850     5.973
    46   6 C        3.800    -0.008    20.724     6.482
    47  16 S        1.911    -0.274   152.889    20.811
    48   1 H        0.860     0.212     1.049     1.605
    49   1 H        0.925     0.097     1.809     2.103
    50   1 H        0.925     0.064     2.152     2.294
    51   1 H        0.924     0.061     2.186     2.312
    52   1 H        0.922     0.192     1.138     1.668
    53   1 H        0.928     0.048     2.346     2.395
    54   1 H        0.862     0.147     1.418     1.866
    55   7 N        2.636    -0.354    29.125     8.015
    56   6 C        3.788     0.031    20.070     6.381
    57   6 C        2.759     0.263    22.570     7.780
    58   8 O        0.859    -0.469    23.117     6.446
    59   6 C        3.818    -0.064    21.715     6.632
    60   6 C        3.855    -0.024    20.957     6.511
    61   6 C        3.760    -0.107    22.585     6.775
    62   6 C        3.759    -0.103    22.512     6.764
    63   1 H        0.860     0.126     1.579     1.968
    64   1 H        0.925     0.039     2.462     2.454
    65   1 H        0.924     0.019     2.747     2.592
    66   1 H        0.924     0.038     2.479     2.462
    67   1 H        0.928     0.090     1.879     2.144
    68   1 H        0.925     0.018     2.771     2.603
    69   1 H        0.925     0.038     2.479     2.462
    70   1 H        0.925     0.048     2.341     2.393
    71   1 H        0.925     0.022     2.697     2.568
    72   1 H        0.925     0.050     2.319     2.382
    73   1 H        0.925     0.016     2.798     2.616
    74   7 N        2.690    -0.170    24.684     7.379
    75   6 C        3.797     0.025    20.155     6.393
    76   6 C        2.759     0.271    22.418     7.754
    77   8 O        0.859    -0.465    23.024     6.433
    78   6 C        3.757    -0.118    22.803     6.808
    79   1 H        0.860     0.208     1.065     1.617
    80   1 H        0.925     0.098     1.800     2.098
    81   1 H        0.924     0.046     2.371     2.408
    82   1 H        0.925     0.053     2.283     2.363
    83   1 H        0.925     0.065     2.141     2.288
    84   7 N        2.689    -0.154    24.331     7.326
    85   6 C        3.800     0.041    19.890     6.350
    86   6 C        2.768     0.200    23.739     7.980
    87   8 O        0.856    -0.357    20.839     6.120
    88   6 C        3.813    -0.081    22.028     6.680
    89   6 C        2.692     0.367    20.773     7.459
    90   8 O        0.856    -0.575    25.512     6.772
    91   8 O        0.858    -0.610    26.366     6.884
    92   1 H        0.860     0.202     1.093     1.638
    93   1 H        0.924     0.081     1.965     2.192
    94   1 H        0.925     0.031     2.566     2.505
    95   1 H        0.924     0.040     2.449     2.447
    96   1 H        0.928     0.043     2.414     2.430
    97   1 H        0.862     0.143     1.450     1.886
    98   7 N        2.636    -0.338    28.692     7.955
    99   6 C        3.787     0.030    20.081     6.382
   100   6 C        2.761     0.261    22.603     7.786
   101   8 O        0.859    -0.478    23.292     6.471
   102   6 C        3.809    -0.051    21.474     6.597
   103   6 C        3.804    -0.085    22.124     6.696
   104   6 C        2.689     0.375    20.650     7.437
   105   8 O        0.866    -0.597    26.039     6.842
   106   8 O        0.857    -0.551    24.937     6.695
   107   1 H        0.860     0.186     1.179     1.701
   108   1 H        0.925     0.040     2.448     2.447
   109   1 H        0.925     0.051     2.309     2.376
   110   1 H        0.924     0.043     2.414     2.430
   111   1 H        0.924     0.014     2.819     2.625
   112   1 H        0.926     0.053     2.285     2.364
   113   7 N        2.689    -0.187    25.061     7.435
   114   6 C        3.793     0.031    20.055     6.377
   115   6 C        2.763     0.207    23.616     7.958
   116   8 O        0.856    -0.342    20.564     6.080
   117   6 C        3.806    -0.072    21.873     6.658
   118   6 C        3.848    -0.014    20.796     6.487
   119   6 C        3.753    -0.108    22.631     6.784
   120   6 C        3.755    -0.109    22.646     6.785
   121   1 H        0.860     0.245     0.904     1.489
   122   1 H        0.925     0.079     1.994     2.208
   123   1 H        0.925     0.068     2.106     2.269
   124   1 H        0.924     0.040     2.455     2.450
   125   1 H        0.925     0.055     2.261     2.352
   126   1 H        0.925     0.037     2.495     2.470
   127   1 H        0.925     0.025     2.654     2.547
   128   1 H        0.924     0.044     2.395     2.420
   129   1 H        0.925     0.043     2.406     2.426
   130   1 H        0.925     0.030     2.589     2.516
   131   1 H        0.925     0.031     2.573     2.508
   132   1 H        0.928     0.050     2.319     2.381
   133   1 H        0.862     0.143     1.448     1.885
   134   7 N        2.631    -0.355    29.148     8.018
   135   6 C        3.784     0.026    20.150     6.394
   136   6 C        2.756     0.262    22.588     7.783
   137   8 O        0.859    -0.447    22.639     6.379
   138   6 C        3.810    -0.069    21.819     6.649
   139   6 C        3.047    -0.032    28.758     8.795
   140   6 C        3.021    -0.012    28.288     8.724
   141   6 C        3.110    -0.022    28.394     8.730
   142   7 N        2.775    -0.108    23.354     7.177
   143   6 C        3.071     0.042    26.980     8.517
   144   6 C        2.909    -0.039    28.960     8.824
   145   6 C        2.906    -0.056    29.396     8.890
   146   6 C        2.916    -0.056    29.387     8.889
   147   6 C        2.919    -0.040    28.999     8.831
   148   1 H        0.860     0.140     1.471     1.900
   149   1 H        0.924     0.051     2.305     2.374
   150   1 H        0.925     0.069     2.095     2.263
   151   1 H        0.925     0.048     2.344     2.394
   152   1 H        0.926     0.026     2.646     2.544
   153   1 H        0.860     0.153     1.381     1.841
   154   1 H        0.926     0.041     2.438     2.442
   155   1 H        0.926     0.023     2.688     2.564
   156   1 H        0.928     0.049     2.335     2.389
   157   1 H        0.925     0.028     2.612     2.528
   158   7 N        2.686    -0.174    24.756     7.390
   159   6 C        3.794     0.028    20.103     6.385
   160   6 C        2.763     0.183    24.076     8.036
   161   8 O        0.856    -0.369    21.067     6.154
   162   6 C        3.818    -0.059    21.622     6.618
   163   6 C        3.795    -0.015    20.857     6.503
   164  16 S        1.957    -0.178   148.607    20.518
   165   6 C        3.746    -0.051    21.551     6.622
   166   1 H        0.860     0.178     1.228     1.736
   167   1 H        0.924     0.093     1.846     2.125
   168   1 H        0.924     0.044     2.396     2.420
   169   1 H        0.925     0.034     2.534     2.489
   170   1 H        0.926     0.039     2.462     2.454
   171   1 H        0.925     0.055     2.263     2.353
   172   1 H        0.925     0.040     2.450     2.448
   173   1 H        0.925     0.067     2.122     2.278
   174   1 H        0.925     0.047     2.361     2.403
   175   1 H        0.928     0.023     2.690     2.565
   176   1 H        0.862     0.135     1.510     1.925
   177   7 N        2.635    -0.360    29.290     8.038
   178   6 C        3.785     0.023    20.201     6.402
   179   6 C        2.759     0.260    22.615     7.788
   180   8 O        0.859    -0.500    23.793     6.540
   181   6 C        3.817    -0.067    21.761     6.639
   182   6 C        3.853    -0.009    20.703     6.471
   183   6 C        3.763    -0.104    22.527     6.765
   184   6 C        3.761    -0.113    22.718     6.794
   185   1 H        0.860     0.176     1.237     1.743
   186   1 H        0.925     0.068     2.108     2.271
   187   1 H        0.924     0.038     2.473     2.459
   188   1 H        0.926     0.040     2.445     2.445
   189   1 H        0.925     0.039     2.465     2.455
   190   1 H        0.924     0.041     2.433     2.439
   191   1 H        0.925     0.036     2.507     2.476
   192   1 H        0.925     0.019     2.747     2.592
   193   1 H        0.925     0.042     2.427     2.436
   194   1 H        0.925     0.039     2.463     2.454
   195   1 H        0.924     0.054     2.270     2.356
   196   7 N        2.686    -0.183    24.958     7.420
   197   6 C        3.797     0.020    20.239     6.406
   198   6 C        2.761     0.203    23.680     7.969
   199   8 O        0.856    -0.334    20.409     6.057
   200   6 C        3.850    -0.018    20.862     6.497
   201   6 C        3.805    -0.066    21.765     6.641
   202   6 C        3.755    -0.108    22.624     6.782
   203   6 C        3.751    -0.103    22.527     6.769
   204   1 H        0.860     0.227     0.978     1.549
   205   1 H        0.925     0.084     1.941     2.179
   206   1 H        0.924     0.043     2.414     2.430
   207   1 H        0.924     0.041     2.434     2.440
   208   1 H        0.925     0.058     2.228     2.334
   209   1 H        0.925     0.042     2.418     2.432
   210   1 H        0.925     0.029     2.599     2.521
   211   1 H        0.924     0.054     2.266     2.354
   212   1 H        0.925     0.037     2.490     2.468
   213   1 H        0.924     0.041     2.436     2.441
   214   1 H        0.925     0.026     2.648     2.545
   215   1 H        0.928     0.042     2.425     2.435
   216   1 H        0.862     0.140     1.469     1.898
   217   7 N        2.633    -0.351    29.051     8.005
   218   6 C        3.785     0.030    20.091     6.385
   219   6 C        2.764     0.193    23.885     8.004
   220   8 O        0.856    -0.365    20.999     6.144
   221   6 C        3.853    -0.012    20.748     6.479
   222   6 C        3.763    -0.117    22.792     6.805
   223   6 C        3.758    -0.112    22.694     6.792
   224   1 H        0.860     0.182     1.201     1.717
   225   1 H        0.925     0.030     2.585     2.514
   226   1 H        0.924     0.046     2.366     2.405
   227   1 H        0.924     0.034     2.536     2.490
   228   1 H        0.926     0.070     2.083     2.257
   229   1 H        0.925     0.052     2.292     2.367
   230   1 H        0.925     0.034     2.530     2.488
   231   1 H        0.925     0.042     2.428     2.437
   232   1 H        0.925     0.041     2.434     2.440
   233   1 H        0.928     0.055     2.252     2.347
   234   1 H        0.862     0.149     1.404     1.856
   235   7 N        2.634    -0.346    28.900     7.984
   236   6 C        3.782     0.035    19.996     6.370
   237   6 C        2.765     0.180    24.121     8.043
   238   8 O        0.856    -0.368    21.049     6.151
   239   6 C        3.807    -0.064    21.720     6.634
   240   6 C        3.804    -0.074    21.914     6.664
   241   6 C        3.737    -0.012    20.866     6.518
   242   7 N        2.696    -0.152    24.292     7.320
   243   6 C        2.736     0.239    23.008     7.853
   244   7 N        2.652    -0.240    26.266     7.612
   245   7 N        2.650    -0.272    27.041     7.723
   246   1 H        0.860     0.143     1.448     1.885
   247   1 H        0.924     0.046     2.369     2.407
   248   1 H        0.924     0.056     2.245     2.343
   249   1 H        0.924     0.051     2.311     2.377
   250   1 H        0.924     0.050     2.318     2.381
   251   1 H        0.927     0.055     2.255     2.348
   252   1 H        0.924     0.067     2.119     2.276
   253   1 H        0.924     0.062     2.172     2.305
   254   1 H        0.860     0.191     1.153     1.682
   255   1 H        0.861     0.202     1.094     1.638
   256   1 H        0.860     0.277     0.785     1.388
   257   1 H        0.861     0.252     0.877     1.467
   258   1 H        0.860     0.266     0.825     1.423
   259   1 H        0.928     0.051     2.311     2.377
   260   1 H        0.862     0.143     1.448     1.885
   261   7 N        2.637    -0.352    29.069     8.007
   262   6 C        3.787     0.034    20.023     6.373
   263   6 C        2.767     0.147    24.783     8.153
   264   8 O        0.856    -0.406    21.803     6.260
   265   6 C        3.815    -0.067    21.779     6.642
   266   6 C        2.968     0.004    27.925     8.668
   267   6 C        2.926    -0.040    28.988     8.829
   268   6 C        2.925    -0.040    28.998     8.831
   269   6 C        2.913    -0.052    29.297     8.876
   270   6 C        2.915    -0.072    29.804     8.952
   271   6 C        2.850     0.145    24.847     8.170
   272   8 O        1.659    -0.402    20.890     6.170
   273   1 H        0.860     0.143     1.450     1.886
   274   1 H        0.925     0.050     2.318     2.381
   275   1 H        0.925     0.042     2.422     2.434
   276   1 H        0.925     0.067     2.116     2.275
   277   1 H        0.925     0.059     2.211     2.325
   278   1 H        0.925     0.022     2.696     2.568
   279   1 H        0.926     0.060     2.201     2.320
   280   1 H        0.926     0.024     2.667     2.554
   281   1 H        0.805     0.294     0.740     1.351
   282   1 H        0.928     0.024     2.673     2.556
   283   1 H        0.862     0.147     1.422     1.868
   284   7 N        2.635    -0.346    28.920     7.987
   285   6 C        3.784     0.036    19.992     6.369
   286   6 C        2.768     0.171    24.305     8.074
   287   8 O        0.856    -0.382    21.319     6.190
   288   6 C        3.815    -0.069    21.813     6.647
   289   6 C        3.851    -0.011    20.733     6.476
   290   6 C        3.760    -0.107    22.595     6.776
   291   6 C        3.757    -0.110    22.646     6.785
   292   1 H        0.860     0.132     1.531     1.939
   293   1 H        0.925     0.057     2.240     2.341
   294   1 H        0.924     0.030     2.583     2.513
   295   1 H        0.924     0.055     2.262     2.352
   296   1 H        0.925     0.028     2.615     2.529
   297   1 H        0.925     0.039     2.457     2.451
   298   1 H        0.925     0.040     2.443     2.444
   299   1 H        0.925     0.029     2.599     2.521
   300   1 H        0.925     0.028     2.608     2.526
   301   1 H        0.925     0.039     2.461     2.453
   302   1 H        0.925     0.042     2.425     2.435
   303   1 H        0.928     0.023     2.681     2.560
   304   1 H        0.862     0.146     1.430     1.873
   305   7 N        2.634    -0.341    28.793     7.969
   306   6 C        3.783     0.037    19.975     6.366
   307   6 C        2.765     0.183    24.074     8.035
   308   8 O        0.856    -0.374    21.165     6.168
   309   6 C        3.814    -0.063    21.691     6.629
   310   6 C        3.852    -0.010    20.714     6.473
   311   6 C        3.760    -0.113    22.717     6.795
   312   6 C        3.759    -0.115    22.750     6.800
   313   1 H        0.860     0.139     1.481     1.907
   314   1 H        0.925     0.050     2.315     2.379
   315   1 H        0.924     0.043     2.414     2.430
   316   1 H        0.924     0.044     2.402     2.424
   317   1 H        0.924     0.026     2.651     2.546
   318   1 H        0.925     0.035     2.521     2.483
   319   1 H        0.926     0.053     2.282     2.362
   320   1 H        0.925     0.033     2.549     2.497
   321   1 H        0.925     0.044     2.393     2.419
   322   1 H        0.926     0.033     2.543     2.494
   323   1 H        0.924     0.045     2.389     2.417
   324   1 H        0.928     0.049     2.331     2.388
   325   1 H        0.862     0.141     1.461     1.893
   326   7 N        2.638    -0.356    29.163     8.020
   327   6 C        3.788     0.031    20.064     6.380
   328   6 C        2.768     0.191    23.919     8.010
   329   8 O        0.856    -0.355    20.798     6.114
   330   6 C        3.856    -0.014    20.784     6.484
   331   6 C        3.808    -0.064    21.716     6.634
   332   6 C        3.756    -0.110    22.650     6.786
   333   6 C        3.752    -0.101    22.481     6.761
   334   1 H        0.860     0.172     1.259     1.758
   335   1 H        0.925     0.052     2.297     2.370
   336   1 H        0.925     0.038     2.474     2.460
   337   1 H        0.924     0.030     2.581     2.512
   338   1 H        0.925     0.057     2.233     2.337
   339   1 H        0.925     0.046     2.369     2.407
   340   1 H        0.925     0.034     2.528     2.487
   341   1 H        0.925     0.047     2.360     2.402
   342   1 H        0.925     0.041     2.441     2.443
   343   1 H        0.924     0.035     2.518     2.482
   344   1 H        0.925     0.033     2.539     2.492
   345   1 H        0.928     0.038     2.479     2.462
   346   1 H        0.862     0.146     1.428     1.872
   347   7 N        2.635    -0.350    29.013     8.000
   348   6 C        3.782     0.036    19.990     6.369
   349   6 C        2.766     0.171    24.302     8.073
   350   8 O        0.856    -0.387    21.420     6.205
   351   6 C        3.758    -0.105    22.559     6.772
   352   1 H        0.860     0.139     1.479     1.905
   353   1 H        0.924     0.053     2.280     2.361
   354   1 H        0.924     0.036     2.505     2.475
   355   1 H        0.924     0.055     2.256     2.349
   356   1 H        0.926     0.054     2.269     2.356
   357   1 H        0.928     0.021     2.716     2.577
   358   1 H        0.862     0.134     1.512     1.926
   359   7 N        2.634    -0.369    29.526     8.070
   360   6 C        3.783     0.044    19.847     6.346
   361   6 C        2.763     0.193    23.868     8.001
   362   8 O        0.856    -0.347    20.650     6.093
   363   6 C        3.816    -0.069    21.807     6.646
   364   6 C        2.965     0.006    27.894     8.663
   365   6 C        2.923    -0.043    29.068     8.841
   366   6 C        2.921    -0.033    28.820     8.804
   367   6 C        2.914    -0.031    28.782     8.797
   368   6 C        2.918    -0.032    28.800     8.800
   369   6 C        2.915    -0.034    28.858     8.809
   370   1 H        0.860     0.187     1.175     1.698
   371   1 H        0.925     0.052     2.290     2.367
   372   1 H        0.927     0.065     2.144     2.289
   373   1 H        0.925     0.052     2.299     2.371
   374   1 H        0.926     0.018     2.771     2.603
   375   1 H        0.925     0.034     2.533     2.489
   376   1 H        0.926     0.029     2.604     2.524
   377   1 H        0.926     0.047     2.354     2.399
   378   1 H        0.925     0.038     2.471     2.458
   379   1 H        0.928     0.038     2.481     2.463
   380   1 H        0.862     0.147     1.422     1.868
   381   7 N        2.632    -0.349    28.984     7.996
   382   6 C        3.787     0.032    20.050     6.377
   383   6 C        2.771     0.192    23.902     8.007
   384   8 O        0.856    -0.341    20.532     6.075
   385   6 C        3.865    -0.012    20.743     6.477
   386   6 C        3.810    -0.058    21.605     6.616
   387   6 C        3.758    -0.111    22.670     6.788
   388   6 C        3.753    -0.103    22.517     6.767
   389   1 H        0.860     0.139     1.481     1.907
   390   1 H        0.925     0.050     2.319     2.382
   391   1 H        0.925     0.046     2.371     2.408
   392   1 H        0.924     0.027     2.630     2.536
   393   1 H        0.927     0.035     2.515     2.480
   394   1 H        0.925     0.042     2.424     2.435
   395   1 H        0.926     0.057     2.231     2.336
   396   1 H        0.925     0.040     2.454     2.450
   397   1 H        0.925     0.036     2.496     2.471
   398   1 H        0.925     0.032     2.558     2.501
   399   1 H        0.925     0.044     2.396     2.421
   400   1 H        0.928     0.054     2.269     2.356
   401   1 H        0.862     0.134     1.517     1.929
   402   7 N        2.634    -0.336    28.658     7.951
   403   6 C        3.773     0.013    20.394     6.435
   404   6 C        2.689     0.355    20.965     7.493
   405   8 O        0.872    -0.395    21.576     6.228
   406   6 C        3.809    -0.046    21.390     6.583
   407   6 C        3.797    -0.058    21.618     6.620
   408   6 C        2.685     0.379    20.583     7.425
   409   8 O        0.857    -0.451    22.732     6.392
   410   8 O        0.856    -0.504    23.877     6.551
   411   8 O        0.872    -0.530    24.444     6.629
   412   1 H        0.861     0.127     1.571     1.964
   413   1 H        0.925     0.033     2.546     2.495
   414   1 H        0.924     0.036     2.498     2.472
   415   1 H        0.924     0.013     2.840     2.635
   416   1 H        0.924     0.025     2.657     2.549
   417   1 H        0.925     0.035     2.513     2.479
   418   6 C        2.973    -0.006    28.161     8.705
   419   6 C        2.923    -0.042    29.037     8.837
   420   6 C        2.913    -0.058    29.446     8.898
   421   6 C        2.844     0.150    24.741     8.152
   422   8 O        1.660    -0.376    20.383     6.095
   423   6 C        2.916    -0.080    29.993     8.981
   424   6 C        2.929    -0.039    28.958     8.825
   425   6 C        2.964    -0.007    28.201     8.711
   426   6 C        2.959    -0.013    28.332     8.731
   427   6 C        3.806    -0.054    21.535     6.606
   428   6 C        3.750    -0.099    22.459     6.759
   429   6 C        2.979     0.015    27.664     8.628
   430   6 C        2.924    -0.034    28.854     8.809
   431   6 C        2.918    -0.034    28.848     8.808
   432   6 C        2.921    -0.037    28.917     8.818
   433   6 C        2.918    -0.038    28.942     8.822
   434   6 C        2.926    -0.037    28.910     8.818
   435   6 C        2.976     0.007    27.858     8.658
   436   6 C        2.929    -0.035    28.880     8.813
   437   6 C        2.918    -0.057    29.428     8.896
   438   6 C        2.850     0.136    25.020     8.198
   439   8 O        1.703    -0.298    18.953     5.878
   440   6 C        2.924    -0.067    29.662     8.931
   441   6 C        2.925    -0.037    28.916     8.818
   442   6 C        3.682     0.064    19.702     6.356
   443   6 C        3.745    -0.037    21.297     6.583
   444   7 N        3.575     0.070    20.023     6.646
   445   6 C        3.695    -0.105    22.693     6.815
   446   6 C        3.703    -0.110    22.774     6.823
   447   1 H        0.805     0.311     0.688     1.303
   448   1 H        0.925     0.040     2.447     2.446
   449   1 H        0.926     0.091     1.865     2.135
   450   1 H        0.859     0.230     0.967     1.540
   451   1 H        0.925     0.022     2.706     2.572
   452   1 H        0.926     0.026     2.648     2.545
   453   1 H        0.925     0.030     2.585     2.514
   454   1 H        0.924     0.041     2.438     2.442
   455   1 H        0.925     0.036     2.496     2.471
   456   1 H        0.925     0.038     2.480     2.463
   457   1 H        0.925     0.029     2.600     2.522
   458   1 H        0.925     0.018     2.758     2.597
   459   1 H        0.925     0.018     2.766     2.601
   460   1 H        0.926     0.026     2.638     2.540
   461   1 H        0.926     0.050     2.321     2.382
   462   1 H        0.926     0.027     2.636     2.539
   463   1 H        0.926     0.033     2.545     2.495
   464   1 H        0.926     0.054     2.275     2.359
   465   1 H        0.926     0.039     2.458     2.451
   466   1 H        0.926     0.045     2.389     2.417
   467   1 H        0.924     0.048     2.351     2.398
   468   1 H        0.924     0.099     1.792     2.093
   469   1 H        0.924     0.089     1.893     2.152
   470   1 H        0.925     0.101     1.780     2.087
   471   1 H        0.925     0.078     1.997     2.210
   472   1 H        0.925     0.096     1.820     2.109
   473   1 H        0.924     0.155     1.360     1.824
   474   1 H        0.924     0.140     1.459     1.889
   475   1 H        0.925     0.104     1.748     2.068
   476   1 H        0.925     0.107     1.718     2.050
   477   8 O        1.603    -0.669    26.910     7.001
   478   1 H        0.807     0.333     0.628     1.245
   479   1 H        0.805     0.282     0.779     1.386
   480   8 O        1.610    -0.572    24.521     6.683
   481   1 H        0.805     0.297     0.732     1.343
   482   1 H        0.805     0.275     0.802     1.406

 Mol. C6AA /au·bohr⁶  :    2116181.423376
 Mol. C8AA /au·bohr⁸  :   47508706.889793
 Mol. α(0) /au        :       2205.549292


Wiberg/Mayer (AO) data.
largest (>0.10) Wiberg bond orders for each atom

 ---------------------------------------------------------------------------
     #   Z sym  total        # sym  WBO       # sym  WBO       # sym  WBO
 ---------------------------------------------------------------------------
     1   1 H    0.979 --     2 N    0.968
     2   7 N    3.021 --     3 C    1.011     1 H    0.968    10 H    0.964
     3   6 C    3.981 --     2 N    1.011     4 C    0.978     6 C    0.971
                            11 H    0.945
     4   6 C    3.720 --     5 O    1.708     3 C    0.978    21 H    0.951
     5   8 O    1.910 --     4 C    1.708
     6   6 C    3.981 --     7 C    0.991    12 H    0.975    13 H    0.973
                             3 C    0.971
     7   6 C    3.990 --     9 C    1.007     8 C    1.005     6 C    0.991
                            14 H    0.966
     8   6 C    3.994 --     7 C    1.005    17 H    0.987    16 H    0.986
                            15 H    0.983
     9   6 C    3.997 --     7 C    1.007    20 H    0.986    19 H    0.985
                            18 H    0.983
    10   1 H    0.981 --     2 N    0.964
    11   1 H    0.995 --     3 C    0.945
    12   1 H    0.999 --     6 C    0.975
    13   1 H    0.997 --     6 C    0.973
    14   1 H    0.998 --     7 C    0.966
    15   1 H    0.998 --     8 C    0.983
    16   1 H    0.998 --     8 C    0.986
    17   1 H    0.999 --     8 C    0.987
    18   1 H    0.999 --     9 C    0.983
    19   1 H    0.999 --     9 C    0.985
    20   1 H    0.999 --     9 C    0.986
    21   1 H    0.999 --     4 C    0.951
    22   1 H    0.979 --    23 N    0.968
    23   7 N    3.024 --    24 C    1.011    22 H    0.968    31 H    0.965
    24   6 C    3.979 --    23 N    1.011    27 C    0.982    32 H    0.952
                            25 C    0.937
    25   6 C    3.948 --    26 O    1.634    42 N    1.295    24 C    0.937
    26   8 O    1.964 --    25 C    1.634    42 N    0.195
    27   6 C    3.992 --    28 C    0.992    24 C    0.982    33 H    0.972
                            34 H    0.971
    28   6 C    3.996 --    30 C    1.012    29 C    1.009    27 C    0.992
                            35 H    0.965
    29   6 C    3.996 --    28 C    1.009    37 H    0.986    36 H    0.984
                            38 H    0.984
    30   6 C    3.996 --    28 C    1.012    40 H    0.986    41 H    0.984
                            39 H    0.983
    31   1 H    0.982 --    23 N    0.965
    32   1 H    0.997 --    24 C    0.952
    33   1 H    0.999 --    27 C    0.972
    34   1 H    0.997 --    27 C    0.971
    35   1 H    0.999 --    28 C    0.965
    36   1 H    0.998 --    29 C    0.984
    37   1 H    0.998 --    29 C    0.986
    38   1 H    0.999 --    29 C    0.984
    39   1 H    0.998 --    30 C    0.983
    40   1 H    0.999 --    30 C    0.986
    41   1 H    0.998 --    30 C    0.984
    42   7 N    3.459 --    25 C    1.295    43 C    0.981    48 H    0.897
                            26 O    0.195
    43   6 C    3.969 --    42 N    0.981    46 C    0.973    44 C    0.967
                            49 H    0.941
    44   6 C    3.914 --    45 O    1.922    43 C    0.967    53 H    0.946
    45   8 O    2.083 --    44 C    1.922
    46   6 C    3.976 --    47 S    1.005    43 C    0.973    51 H    0.969
                            50 H    0.968
    47  16 S    2.028 --    46 C    1.005    52 H    0.926
    48   1 H    0.955 --    42 N    0.897
    49   1 H    0.990 --    43 C    0.941
    50   1 H    0.996 --    46 C    0.968
    51   1 H    0.996 --    46 C    0.969
    52   1 H    0.962 --    47 S    0.926
    53   1 H    0.998 --    44 C    0.946
    54   1 H    0.978 --    55 N    0.967
    55   7 N    3.019 --    56 C    1.006    54 H    0.967    63 H    0.966
    56   6 C    3.978 --    55 N    1.006    59 C    0.985    64 H    0.958
                            57 C    0.936
    57   6 C    3.950 --    58 O    1.627    74 N    1.306    56 C    0.936
    58   8 O    1.970 --    57 C    1.627    74 N    0.197
    59   6 C    3.993 --    60 C    0.992    56 C    0.985    65 H    0.974
                            66 H    0.970
    60   6 C    3.987 --    61 C    1.012    62 C    1.006    59 C    0.992
                            67 H    0.952
    61   6 C    3.997 --    60 C    1.012    68 H    0.987    69 H    0.986
                            70 H    0.982
    62   6 C    3.997 --    60 C    1.006    73 H    0.987    71 H    0.985
                            72 H    0.981
    63   1 H    0.984 --    55 N    0.966
    64   1 H    0.998 --    56 C    0.958
    65   1 H    0.999 --    59 C    0.974
    66   1 H    0.999 --    59 C    0.970
    67   1 H    0.992 --    60 C    0.952
    68   1 H    1.000 --    61 C    0.987
    69   1 H    0.998 --    61 C    0.986
    70   1 H    0.998 --    61 C    0.982
    71   1 H    0.999 --    62 C    0.985
    72   1 H    0.997 --    62 C    0.981
    73   1 H    1.000 --    62 C    0.987
    74   7 N    3.474 --    57 C    1.306    75 C    0.977    79 H    0.911
                            58 O    0.197
    75   6 C    3.965 --    78 C    0.995    74 N    0.977    80 H    0.942
                            76 C    0.940
    76   6 C    3.949 --    77 O    1.594    84 N    1.323    75 C    0.940
    77   8 O    1.993 --    76 C    1.594    84 N    0.195
    78   6 C    3.990 --    75 C    0.995    81 H    0.982    82 H    0.978
                            83 H    0.975
    79   1 H    0.956 --    74 N    0.911
    80   1 H    0.990 --    75 C    0.942
    81   1 H    0.998 --    78 C    0.982
    82   1 H    0.997 --    78 C    0.978
    83   1 H    0.995 --    78 C    0.975
    84   7 N    3.489 --    76 C    1.323    85 C    0.969    92 H    0.922
                            77 O    0.195
    85   6 C    3.964 --    86 C    0.986    84 N    0.969    88 C    0.963
                            93 H    0.944
    86   6 C    3.920 --    87 O    1.867    85 C    0.986    96 H    0.947
    87   8 O    2.034 --    86 C    1.867
    88   6 C    3.973 --    94 H    0.964    85 C    0.963    95 H    0.963
                            89 C    0.920
    89   6 C    3.950 --    90 O    1.534    91 O    1.462    88 C    0.920
    90   8 O    1.849 --    89 C    1.534    91 O    0.226
    91   8 O    1.829 --    89 C    1.462    90 O    0.226
    92   1 H    0.959 --    84 N    0.922
    93   1 H    0.993 --    85 C    0.944
    94   1 H    0.999 --    88 C    0.964
    95   1 H    0.998 --    88 C    0.963
    96   1 H    0.998 --    86 C    0.947
    97   1 H    0.979 --    98 N    0.969
    98   7 N    3.013 --    99 C    1.020    97 H    0.969   107 H    0.927
    99   6 C    3.967 --    98 N    1.020   102 C    0.973   108 H    0.954
                           100 C    0.925
   100   6 C    3.934 --   101 O    1.629   113 N    1.307    99 C    0.925
   101   8 O    1.942 --   100 C    1.629   113 N    0.196
   102   6 C    3.987 --   103 C    0.996    99 C    0.973   110 H    0.973
                           109 H    0.964
   103   6 C    3.944 --   102 C    0.996   111 H    0.972   112 H    0.968
                           104 C    0.914
   104   6 C    3.929 --   106 O    1.523   105 O    1.450   103 C    0.914
   105   8 O    1.838 --   104 C    1.450   106 O    0.213
   106   8 O    1.823 --   104 C    1.523   105 O    0.213
   107   1 H    0.965 --    98 N    0.927
   108   1 H    0.992 --    99 C    0.954
   109   1 H    0.997 --   102 C    0.964
   110   1 H    0.998 --   102 C    0.973
   111   1 H    0.998 --   103 C    0.972
   112   1 H    0.997 --   103 C    0.968
   113   7 N    3.459 --   100 C    1.307   114 C    0.984   121 H    0.857
                           101 O    0.196
   114   6 C    3.973 --   113 N    0.984   115 C    0.971   117 C    0.971
                           122 H    0.946
   115   6 C    3.906 --   116 O    1.906   114 C    0.971   132 H    0.950
   116   8 O    2.052 --   115 C    1.906
   117   6 C    3.988 --   118 C    0.992   124 H    0.974   114 C    0.971
                           123 H    0.968
   118   6 C    3.993 --   120 C    1.008   119 C    1.007   117 C    0.992
                           125 H    0.964
   119   6 C    3.995 --   118 C    1.007   126 H    0.987   127 H    0.986
                           128 H    0.984
   120   6 C    3.997 --   118 C    1.008   131 H    0.987   129 H    0.981
                           130 H    0.977
   121   1 H    0.940 --   113 N    0.857
   122   1 H    0.993 --   114 C    0.946
   123   1 H    0.995 --   117 C    0.968
   124   1 H    0.998 --   117 C    0.974
   125   1 H    0.997 --   118 C    0.964
   126   1 H    0.999 --   119 C    0.987
   127   1 H    0.998 --   119 C    0.986
   128   1 H    0.998 --   119 C    0.984
   129   1 H    0.998 --   120 C    0.981
   130   1 H    0.999 --   120 C    0.977
   131   1 H    0.999 --   120 C    0.987
   132   1 H    0.997 --   115 C    0.950
   133   1 H    0.979 --   134 N    0.969
   134   7 N    3.012 --   135 C    1.009   133 H    0.969   148 H    0.961
   135   6 C    3.977 --   134 N    1.009   138 C    0.965   149 H    0.956
                           136 C    0.938
   136   6 C    3.947 --   137 O    1.653   158 N    1.277   135 C    0.938
   137   8 O    1.990 --   136 C    1.653   158 N    0.193
   138   6 C    3.991 --   139 C    1.020   135 C    0.965   151 H    0.964
                           150 H    0.960
   139   6 C    3.980 --   140 C    1.587   141 C    1.198   138 C    1.020
   140   6 C    3.950 --   139 C    1.587   142 N    1.187   152 H    0.967
   141   6 C    3.983 --   144 C    1.329   143 C    1.258   139 C    1.198
   142   7 N    3.534 --   140 C    1.187   143 C    1.172   153 H    0.948
   143   6 C    3.956 --   145 C    1.324   141 C    1.258   142 N    1.172
   144   6 C    3.991 --   146 C    1.504   141 C    1.329   154 H    0.964
                           145 C    0.114
   145   6 C    3.988 --   147 C    1.506   143 C    1.324   155 H    0.969
                           144 C    0.114
   146   6 C    3.986 --   144 C    1.504   147 C    1.360   156 H    0.954
   147   6 C    3.991 --   145 C    1.506   146 C    1.360   157 H    0.970
   148   1 H    0.980 --   134 N    0.961
   149   1 H    0.996 --   135 C    0.956
   150   1 H    0.995 --   138 C    0.960
   151   1 H    0.996 --   138 C    0.964
   152   1 H    0.999 --   140 C    0.967
   153   1 H    0.976 --   142 N    0.948
   154   1 H    0.998 --   144 C    0.964
   155   1 H    0.999 --   145 C    0.969
   156   1 H    0.997 --   146 C    0.954
   157   1 H    0.999 --   147 C    0.970
   158   7 N    3.447 --   136 C    1.277   159 C    0.972   166 H    0.931
                           137 O    0.193
   159   6 C    3.962 --   162 C    0.976   158 N    0.972   160 C    0.968
                           167 H    0.945
   160   6 C    3.769 --   161 O    1.782   159 C    0.968   175 H    0.951
   161   8 O    1.956 --   160 C    1.782
   162   6 C    3.987 --   163 C    1.008   159 C    0.976   169 H    0.971
                           168 H    0.970
   163   6 C    3.984 --   162 C    1.008   164 S    0.992   170 H    0.975
                           171 H    0.971
   164  16 S    2.097 --   165 C    1.018   163 C    0.992
   165   6 C    3.979 --   164 S    1.018   172 H    0.984   174 H    0.976
                           173 H    0.973
   166   1 H    0.968 --   158 N    0.931
   167   1 H    0.990 --   159 C    0.945
   168   1 H    0.997 --   162 C    0.970
   169   1 H    0.999 --   162 C    0.971
   170   1 H    0.998 --   163 C    0.975
   171   1 H    0.997 --   163 C    0.971
   172   1 H    0.998 --   165 C    0.984
   173   1 H    0.995 --   165 C    0.973
   174   1 H    0.998 --   165 C    0.976
   175   1 H    0.999 --   160 C    0.951
   176   1 H    0.982 --   177 N    0.972
   177   7 N    3.037 --   178 C    1.020   176 H    0.972   185 H    0.936
   178   6 C    3.978 --   177 N    1.020   181 C    0.981   186 H    0.944
                           179 C    0.933
   179   6 C    3.936 --   180 O    1.602   196 N    1.307   178 C    0.933
   180   8 O    1.945 --   179 C    1.602   196 N    0.184
   181   6 C    3.992 --   182 C    0.991   178 C    0.981   187 H    0.971
                           188 H    0.969
   182   6 C    3.995 --   184 C    1.011   183 C    1.008   181 C    0.991
                           189 H    0.967
   183   6 C    3.996 --   182 C    1.008   192 H    0.984   190 H    0.982
                           191 H    0.981
   184   6 C    3.994 --   182 C    1.011   195 H    0.982   194 H    0.981
                           193 H    0.980
   185   1 H    0.969 --   177 N    0.936
   186   1 H    0.994 --   178 C    0.944
   187   1 H    0.998 --   181 C    0.971
   188   1 H    0.998 --   181 C    0.969
   189   1 H    0.998 --   182 C    0.967
   190   1 H    0.998 --   183 C    0.982
   191   1 H    0.998 --   183 C    0.981
   192   1 H    1.000 --   183 C    0.984
   193   1 H    0.998 --   184 C    0.980
   194   1 H    0.998 --   184 C    0.981
   195   1 H    0.997 --   184 C    0.982
   196   7 N    3.461 --   179 C    1.307   197 C    0.986   204 H    0.886
                           180 O    0.184
   197   6 C    3.971 --   196 N    0.986   198 C    0.978   200 C    0.945
                           205 H    0.938
   198   6 C    3.909 --   199 O    1.898   197 C    0.978   215 H    0.949
   199   8 O    2.055 --   198 C    1.898
   200   6 C    3.989 --   202 C    1.012   201 C    0.993   206 H    0.966
                           197 C    0.945
   201   6 C    3.993 --   203 C    1.020   200 C    0.993   207 H    0.975
                           208 H    0.972
   202   6 C    3.995 --   200 C    1.012   210 H    0.984   211 H    0.983
                           209 H    0.981
   203   6 C    3.996 --   201 C    1.020   214 H    0.986   212 H    0.986
                           213 H    0.984
   204   1 H    0.948 --   196 N    0.886
   205   1 H    0.993 --   197 C    0.938
   206   1 H    0.998 --   200 C    0.966
   207   1 H    0.998 --   201 C    0.975
   208   1 H    0.997 --   201 C    0.972
   209   1 H    0.998 --   202 C    0.981
   210   1 H    0.999 --   202 C    0.984
   211   1 H    0.997 --   202 C    0.983
   212   1 H    0.999 --   203 C    0.986
   213   1 H    0.998 --   203 C    0.984
   214   1 H    0.999 --   203 C    0.986
   215   1 H    0.998 --   198 C    0.949
   216   1 H    0.980 --   217 N    0.969
   217   7 N    3.039 --   218 C    1.022   216 H    0.969   224 H    0.938
   218   6 C    3.986 --   217 N    1.022   219 C    0.981   225 H    0.948
                           221 C    0.941
   219   6 C    3.901 --   220 O    1.881   218 C    0.981   233 H    0.948
   220   8 O    2.041 --   219 C    1.881
   221   6 C    3.991 --   222 C    1.016   223 C    1.008   226 H    0.964
                           218 C    0.941
   222   6 C    3.992 --   221 C    1.016   229 H    0.982   227 H    0.981
                           228 H    0.961
   223   6 C    3.995 --   221 C    1.008   230 H    0.985   232 H    0.985
                           231 H    0.981
   224   1 H    0.967 --   217 N    0.938
   225   1 H    0.999 --   218 C    0.948
   226   1 H    0.998 --   221 C    0.964
   227   1 H    0.999 --   222 C    0.981
   228   1 H    0.995 --   222 C    0.961
   229   1 H    0.997 --   222 C    0.982
   230   1 H    0.999 --   223 C    0.985
   231   1 H    0.998 --   223 C    0.981
   232   1 H    0.998 --   223 C    0.985
   233   1 H    0.997 --   219 C    0.948
   234   1 H    0.978 --   235 N    0.968
   235   7 N    3.026 --   236 C    1.021   234 H    0.968   246 H    0.964
   236   6 C    3.985 --   235 N    1.021   239 C    0.974   237 C    0.966
                           247 H    0.945
   237   6 C    3.831 --   238 O    1.853   236 C    0.966   259 H    0.947
   238   8 O    1.990 --   237 C    1.853
   239   6 C    3.989 --   240 C    1.007   236 C    0.974   248 H    0.973
                           249 H    0.972
   240   6 C    3.992 --   239 C    1.007   241 C    0.994   251 H    0.973
                           250 H    0.970
   241   6 C    3.961 --   240 C    0.994   242 N    0.985   252 H    0.971
                           253 H    0.963
   242   7 N    3.434 --   243 C    1.271   241 C    0.985   254 H    0.933
   243   6 C    3.974 --   244 N    1.342   245 N    1.328   242 N    1.271
   244   7 N    3.416 --   243 C    1.342   255 H    0.931   256 H    0.878
                           245 N    0.107
   245   7 N    3.354 --   243 C    1.328   258 H    0.899   257 H    0.851
                           244 N    0.107
   246   1 H    0.979 --   235 N    0.964
   247   1 H    0.996 --   236 C    0.945
   248   1 H    0.997 --   239 C    0.973
   249   1 H    0.997 --   239 C    0.972
   250   1 H    0.997 --   240 C    0.970
   251   1 H    0.997 --   240 C    0.973
   252   1 H    0.995 --   241 C    0.971
   253   1 H    0.995 --   241 C    0.963
   254   1 H    0.963 --   242 N    0.933
   255   1 H    0.959 --   244 N    0.931
   256   1 H    0.923 --   244 N    0.878
   257   1 H    0.936 --   245 N    0.851
   258   1 H    0.929 --   245 N    0.899
   259   1 H    0.997 --   237 C    0.947
   260   1 H    0.979 --   261 N    0.968
   261   7 N    3.024 --   262 C    1.013   260 H    0.968   273 H    0.962
   262   6 C    3.981 --   261 N    1.013   263 C    0.977   265 C    0.954
                           274 H    0.941
   263   6 C    3.716 --   264 O    1.710   262 C    0.977   282 H    0.951
   264   8 O    1.926 --   263 C    1.710
   265   6 C    3.980 --   266 C    1.011   275 H    0.972   276 H    0.960
                           262 C    0.954
   266   6 C    3.986 --   268 C    1.418   267 C    1.392   265 C    1.011
   267   6 C    3.987 --   269 C    1.461   266 C    1.392   277 H    0.966
                           270 C    0.109
   268   6 C    3.989 --   270 C    1.439   266 C    1.418   278 H    0.968
                           269 C    0.105
   269   6 C    3.987 --   267 C    1.461   271 C    1.365   279 H    0.963
                           268 C    0.105
   270   6 C    3.986 --   268 C    1.439   271 C    1.381   280 H    0.968
                           267 C    0.109
   271   6 C    3.934 --   270 C    1.381   269 C    1.365   272 O    1.055
   272   8 O    2.100 --   271 C    1.055   281 H    0.891
   273   1 H    0.979 --   261 N    0.962
   274   1 H    0.994 --   262 C    0.941
   275   1 H    0.998 --   265 C    0.972
   276   1 H    0.995 --   265 C    0.960
   277   1 H    0.996 --   267 C    0.966
   278   1 H    0.999 --   268 C    0.968
   279   1 H    0.996 --   269 C    0.963
   280   1 H    0.999 --   270 C    0.968
   281   1 H    0.913 --   272 O    0.891
   282   1 H    0.999 --   263 C    0.951
   283   1 H    0.978 --   284 N    0.969
   284   7 N    3.027 --   285 C    1.018   283 H    0.969   292 H    0.969
   285   6 C    3.983 --   284 N    1.018   286 C    0.983   288 C    0.968
                           293 H    0.932
   286   6 C    3.801 --   287 O    1.807   285 C    0.983   303 H    0.949
   287   8 O    1.950 --   286 C    1.807
   288   6 C    3.988 --   289 C    0.995   294 H    0.976   295 H    0.970
                           285 C    0.968
   289   6 C    3.997 --   290 C    1.010   291 C    1.009   288 C    0.995
                           296 H    0.969
   290   6 C    3.996 --   289 C    1.010   299 H    0.986   297 H    0.986
                           298 H    0.984
   291   6 C    3.996 --   289 C    1.009   302 H    0.985   301 H    0.984
                           300 H    0.983
   292   1 H    0.982 --   284 N    0.969
   293   1 H    0.991 --   285 C    0.932
   294   1 H    0.999 --   288 C    0.976
   295   1 H    0.997 --   288 C    0.970
   296   1 H    0.999 --   289 C    0.969
   297   1 H    0.998 --   290 C    0.986
   298   1 H    0.998 --   290 C    0.984
   299   1 H    0.999 --   290 C    0.986
   300   1 H    0.999 --   291 C    0.983
   301   1 H    0.998 --   291 C    0.984
   302   1 H    0.998 --   291 C    0.985
   303   1 H    0.999 --   286 C    0.949
   304   1 H    0.978 --   305 N    0.968
   305   7 N    3.038 --   306 C    1.012   304 H    0.968   313 H    0.963
   306   6 C    3.981 --   305 N    1.012   307 C    0.971   309 C    0.970
                           314 H    0.952
   307   6 C    3.841 --   308 O    1.837   306 C    0.971   324 H    0.949
   308   8 O    2.002 --   307 C    1.837
   309   6 C    3.988 --   310 C    0.995   316 H    0.971   306 C    0.970
                           315 H    0.967
   310   6 C    3.996 --   312 C    1.011   311 C    1.007   309 C    0.995
                           317 H    0.970
   311   6 C    3.995 --   310 C    1.007   320 H    0.988   318 H    0.980
                           319 H    0.976
   312   6 C    3.995 --   310 C    1.011   323 H    0.984   321 H    0.979
                           322 H    0.976
   313   1 H    0.981 --   305 N    0.963
   314   1 H    0.997 --   306 C    0.952
   315   1 H    0.998 --   309 C    0.967
   316   1 H    0.998 --   309 C    0.971
   317   1 H    0.999 --   310 C    0.970
   318   1 H    0.999 --   311 C    0.980
   319   1 H    0.997 --   311 C    0.976
   320   1 H    0.999 --   311 C    0.988
   321   1 H    0.998 --   312 C    0.979
   322   1 H    0.999 --   312 C    0.976
   323   1 H    0.998 --   312 C    0.984
   324   1 H    0.998 --   307 C    0.949
   325   1 H    0.980 --   326 N    0.970
   326   7 N    3.041 --   327 C    1.021   325 H    0.970   334 H    0.941
   327   6 C    3.984 --   326 N    1.021   328 C    0.978   330 C    0.949
                           335 H    0.947
   328   6 C    3.905 --   329 O    1.888   327 C    0.978   345 H    0.949
   329   8 O    2.045 --   328 C    1.888
   330   6 C    3.991 --   332 C    1.011   331 C    0.991   336 H    0.966
                           327 C    0.949
   331   6 C    3.995 --   333 C    1.022   330 C    0.991   337 H    0.975
                           338 H    0.969
   332   6 C    3.995 --   330 C    1.011   341 H    0.985   340 H    0.984
                           339 H    0.981
   333   6 C    3.996 --   331 C    1.022   344 H    0.986   342 H    0.983
                           343 H    0.983
   334   1 H    0.970 --   326 N    0.941
   335   1 H    0.997 --   327 C    0.947
   336   1 H    0.998 --   330 C    0.966
   337   1 H    0.999 --   331 C    0.975
   338   1 H    0.997 --   331 C    0.969
   339   1 H    0.998 --   332 C    0.981
   340   1 H    0.999 --   332 C    0.984
   341   1 H    0.998 --   332 C    0.985
   342   1 H    0.998 --   333 C    0.983
   343   1 H    0.998 --   333 C    0.983
   344   1 H    0.999 --   333 C    0.986
   345   1 H    0.998 --   328 C    0.949
   346   1 H    0.979 --   347 N    0.969
   347   7 N    3.026 --   348 C    1.007   346 H    0.969   352 H    0.966
   348   6 C    3.981 --   347 N    1.007   351 C    0.991   349 C    0.966
                           353 H    0.952
   349   6 C    3.770 --   350 O    1.775   348 C    0.966   357 H    0.950
   350   8 O    1.958 --   349 C    1.775
   351   6 C    3.986 --   348 C    0.991   354 H    0.983   355 H    0.979
                           356 H    0.968
   352   1 H    0.980 --   347 N    0.966
   353   1 H    0.996 --   348 C    0.952
   354   1 H    0.999 --   351 C    0.983
   355   1 H    0.997 --   351 C    0.979
   356   1 H    0.996 --   351 C    0.968
   357   1 H    0.999 --   349 C    0.950
   358   1 H    0.981 --   359 N    0.970
   359   7 N    3.023 --   360 C    1.023   358 H    0.970   370 H    0.918
   360   6 C    3.986 --   359 N    1.023   361 C    0.978   363 C    0.952
                           371 H    0.942
   361   6 C    3.908 --   362 O    1.898   360 C    0.978   379 H    0.948
   362   8 O    2.054 --   361 C    1.898
   363   6 C    3.989 --   364 C    1.004   373 H    0.968   372 H    0.965
                           360 C    0.952
   364   6 C    3.988 --   366 C    1.418   365 C    1.414   363 C    1.004
                           369 C    0.108
   365   6 C    3.991 --   367 C    1.439   364 C    1.414   374 H    0.971
                           368 C    0.114
   366   6 C    3.992 --   368 C    1.443   364 C    1.418   375 H    0.968
                           367 C    0.110
   367   6 C    3.992 --   369 C    1.444   365 C    1.439   376 H    0.972
                           366 C    0.110
   368   6 C    3.991 --   366 C    1.443   369 C    1.435   377 H    0.965
                           365 C    0.114
   369   6 C    3.991 --   367 C    1.444   368 C    1.435   378 H    0.969
                           364 C    0.108
   370   1 H    0.965 --   359 N    0.918
   371   1 H    0.997 --   360 C    0.942
   372   1 H    0.996 --   363 C    0.965
   373   1 H    0.997 --   363 C    0.968
   374   1 H    1.000 --   365 C    0.971
   375   1 H    0.999 --   366 C    0.968
   376   1 H    0.999 --   367 C    0.972
   377   1 H    0.997 --   368 C    0.965
   378   1 H    0.998 --   369 C    0.969
   379   1 H    0.999 --   361 C    0.948
   380   1 H    0.978 --   381 N    0.968
   381   7 N    3.023 --   382 C    1.020   380 H    0.968   389 H    0.962
   382   6 C    3.983 --   381 N    1.020   383 C    0.974   385 C    0.949
                           390 H    0.947
   383   6 C    3.906 --   384 O    1.905   382 C    0.974   400 H    0.947
   384   8 O    2.059 --   383 C    1.905
   385   6 C    3.991 --   387 C    1.011   386 C    0.991   391 H    0.965
                           382 C    0.949
   386   6 C    3.996 --   388 C    1.017   385 C    0.991   392 H    0.977
                           393 H    0.973
   387   6 C    3.992 --   385 C    1.011   396 H    0.986   395 H    0.980
                           394 H    0.976
   388   6 C    3.995 --   386 C    1.017   398 H    0.986   397 H    0.985
                           399 H    0.985
   389   1 H    0.981 --   381 N    0.962
   390   1 H    0.997 --   382 C    0.947
   391   1 H    0.998 --   385 C    0.965
   392   1 H    0.999 --   386 C    0.977
   393   1 H    0.999 --   386 C    0.973
   394   1 H    0.998 --   387 C    0.976
   395   1 H    0.997 --   387 C    0.980
   396   1 H    0.998 --   387 C    0.986
   397   1 H    0.999 --   388 C    0.985
   398   1 H    0.998 --   388 C    0.986
   399   1 H    0.998 --   388 C    0.985
   400   1 H    0.997 --   383 C    0.947
   401   1 H    0.982 --   402 N    0.968
   402   7 N    3.011 --   403 C    0.991   412 H    0.972   401 H    0.968
   403   6 C    3.950 --   402 N    0.991   406 C    0.981   413 H    0.946
                           404 C    0.909
   404   6 C    3.928 --   405 O    1.536   411 O    1.430   403 C    0.909
   405   8 O    1.863 --   404 C    1.536   411 O    0.195
   406   6 C    3.986 --   407 C    1.000   403 C    0.981   414 H    0.971
                           415 H    0.971
   407   6 C    3.864 --   406 C    1.000   416 H    0.976   417 H    0.972
                           408 C    0.858
   408   6 C    3.920 --   409 O    1.529   410 O    1.513   407 C    0.858
   409   8 O    1.828 --   408 C    1.529   410 O    0.231
   410   8 O    1.793 --   408 C    1.513   409 O    0.231
   411   8 O    1.733 --   404 C    1.430   405 O    0.195
   412   1 H    0.984 --   402 N    0.972
   413   1 H    0.999 --   403 C    0.946
   414   1 H    0.994 --   406 C    0.971
   415   1 H    0.990 --   406 C    0.971
   416   1 H    0.996 --   407 C    0.976
   417   1 H    0.996 --   407 C    0.972
   418   6 C    3.985 --   424 C    1.394   419 C    1.373   425 C    1.017
   419   6 C    3.988 --   420 C    1.472   418 C    1.373   448 H    0.966
                           423 C    0.100
   420   6 C    3.982 --   419 C    1.472   421 C    1.345   449 H    0.958
                           424 C    0.104
   421   6 C    3.940 --   423 C    1.363   420 C    1.345   422 O    1.097
   422   8 O    2.146 --   421 C    1.097   447 H    0.874
   423   6 C    3.984 --   424 C    1.446   421 C    1.363   451 H    0.964
                           419 C    0.100
   424   6 C    3.989 --   423 C    1.446   418 C    1.394   452 H    0.968
                           420 C    0.104
   425   6 C    3.985 --   426 C    1.779   435 C    1.022   418 C    1.017
   426   6 C    3.979 --   425 C    1.779   429 C    1.020   427 C    0.998
   427   6 C    3.996 --   428 C    1.004   426 C    0.998   454 H    0.970
                           453 H    0.963
   428   6 C    3.994 --   427 C    1.004   455 H    0.987   456 H    0.986
                           457 H    0.985
   429   6 C    3.986 --   434 C    1.397   430 C    1.391   426 C    1.020
                           432 C    0.110
   430   6 C    3.988 --   431 C    1.454   429 C    1.391   458 H    0.968
                           433 C    0.108
   431   6 C    3.992 --   430 C    1.454   432 C    1.429   459 H    0.968
                           434 C    0.109
   432   6 C    3.989 --   433 C    1.440   431 C    1.429   460 H    0.969
                           429 C    0.110
   433   6 C    3.990 --   434 C    1.444   432 C    1.440   461 H    0.962
                           430 C    0.108
   434   6 C    3.990 --   433 C    1.444   429 C    1.397   462 H    0.970
                           431 C    0.109
   435   6 C    3.985 --   441 C    1.402   436 C    1.371   425 C    1.022
   436   6 C    3.989 --   437 C    1.470   435 C    1.371   463 H    0.967
                           440 C    0.103
   437   6 C    3.986 --   436 C    1.470   438 C    1.359   464 H    0.962
                           441 C    0.105
   438   6 C    3.931 --   440 C    1.388   437 C    1.359   439 O    1.021
   439   8 O    2.174 --   438 C    1.021   442 C    0.965
   440   6 C    3.987 --   441 C    1.441   438 C    1.388   465 H    0.947
                           436 C    0.103
   441   6 C    3.988 --   440 C    1.441   435 C    1.402   466 H    0.965
                           437 C    0.105
   442   6 C    3.941 --   443 C    1.008   439 O    0.965   467 H    0.960
                           468 H    0.951
   443   6 C    3.946 --   442 C    1.008   469 H    0.966   470 H    0.964
                           444 N    0.947
   444   7 N    3.781 --   445 C    0.950   443 C    0.947   446 C    0.947
                           450 H    0.919
   445   6 C    3.900 --   471 H    0.979   472 H    0.970   444 N    0.950
                           473 H    0.944
   446   6 C    3.889 --   475 H    0.973   476 H    0.973   474 H    0.947
                           444 N    0.947
   447   1 H    0.903 --   422 O    0.874
   448   1 H    0.998 --   419 C    0.966
   449   1 H    0.991 --   420 C    0.958
   450   1 H    0.947 --   444 N    0.919
   451   1 H    0.999 --   423 C    0.964
   452   1 H    0.999 --   424 C    0.968
   453   1 H    0.997 --   427 C    0.963
   454   1 H    0.997 --   427 C    0.970
   455   1 H    0.999 --   428 C    0.987
   456   1 H    0.998 --   428 C    0.986
   457   1 H    0.999 --   428 C    0.985
   458   1 H    1.000 --   430 C    0.968
   459   1 H    0.999 --   431 C    0.968
   460   1 H    0.999 --   432 C    0.969
   461   1 H    0.997 --   433 C    0.962
   462   1 H    0.999 --   434 C    0.970
   463   1 H    0.998 --   436 C    0.967
   464   1 H    0.997 --   437 C    0.962
   465   1 H    0.998 --   440 C    0.947
   466   1 H    0.998 --   441 C    0.965
   467   1 H    0.998 --   442 C    0.960
   468   1 H    0.989 --   442 C    0.951
   469   1 H    0.992 --   443 C    0.966
   470   1 H    0.989 --   443 C    0.964
   471   1 H    0.994 --   445 C    0.979
   472   1 H    0.991 --   445 C    0.970
   473   1 H    0.976 --   445 C    0.944
   474   1 H    0.980 --   446 C    0.947
   475   1 H    0.989 --   446 C    0.973
   476   1 H    0.988 --   446 C    0.973
   477   8 O    1.794 --   479 H    0.892   478 H    0.793
   478   1 H    0.889 --   477 O    0.793
   479   1 H    0.921 --   477 O    0.892
   480   8 O    1.836 --   482 H    0.924   481 H    0.911
   481   1 H    0.912 --   480 O    0.911
   482   1 H    0.924 --   480 O    0.924
 ---------------------------------------------------------------------------

Topologies differ in total number of bonds
Writing topology from bond orders to xtbtopo.mol

molecular dipole:
                 x           y           z       tot (Debye)
 q only:     -184.757     117.428     335.377
   full:     -183.421     115.170     334.068    1011.950
molecular quadrupole (traceless):
                xx          xy          yy          xz          yz          zz
 q only:    14832.779   16544.162   29525.794   46358.497  -29223.523  -44358.574
  q+dip:    14783.347   16182.909   29390.491   45808.381  -28460.796  -44173.838
   full:    14777.981   16177.134   29392.589   45815.402  -28461.716  -44170.570


           -------------------------------------------------
          | TOTAL ENERGY             -688.266377393130 Eh   |
          | GRADIENT NORM               0.606882747043 Eh/α |
          | HOMO-LUMO GAP               0.070691831009 eV   |
           -------------------------------------------------

------------------------------------------------------------------------
 * finished run on 2024/01/09 at 22:34:27.451     
------------------------------------------------------------------------
 total:
 * wall-time:     0 d,  0 h,  0 min, 23.423 sec
 *  cpu-time:     0 d,  0 h,  5 min, 54.254 sec
 * ratio c/w:    15.124 speedup
 SCF:
 * wall-time:     0 d,  0 h,  0 min, 22.883 sec
 *  cpu-time:     0 d,  0 h,  5 min, 48.155 sec
 * ratio c/w:    15.214 speedup

