      -----------------------------------------------------------      
     |                   =====================                   |     
     |                           x T B                           |     
     |                   =====================                   |     
     |                         S. Grimme                         |     
     |          Mulliken Center for Theoretical Chemistry        |     
     |                    University of Bonn                     |     
      -----------------------------------------------------------      

   * xtb version 6.6.0 (2ccbbd7) compiled by 'conda@6fe65c42fc39' on 2023-02-10

   xtb is free software: you can redistribute it and/or modify it under
   the terms of the GNU Lesser General Public License as published by
   the Free Software Foundation, either version 3 of the License, or
   (at your option) any later version.
   
   xtb is distributed in the hope that it will be useful,
   but WITHOUT ANY WARRANTY; without even the implied warranty of
   MERCHANTABILITY or FITNESS FOR A PARTICULAR PURPOSE.  See the
   GNU Lesser General Public License for more details.
   
   Cite this work as:
   * C. Bannwarth, E. Caldeweyher, S. Ehlert, A. Hansen, P. Pracht,
     J. Seibert, S. Spicher, S. Grimme, WIREs Comput. Mol. Sci., 2020, 11,
     e01493. DOI: 10.1002/wcms.1493
   
   for GFN2-xTB:
   * C. Bannwarth, S. Ehlert and S. Grimme., J. Chem. Theory Comput., 2019,
     15, 1652-1671. DOI: 10.1021/acs.jctc.8b01176
   for GFN1-xTB:
   * S. Grimme, C. Bannwarth, P. Shushkov, J. Chem. Theory Comput., 2017,
     13, 1989-2009. DOI: 10.1021/acs.jctc.7b00118
   for GFN0-xTB:
   * P. Pracht, E. Caldeweyher, S. Ehlert, S. Grimme, ChemRxiv, 2019, preprint.
     DOI: 10.26434/chemrxiv.8326202.v1
   for GFN-FF:
   * S. Spicher and S. Grimme, Angew. Chem. Int. Ed., 2020, 59, 15665-15673.
     DOI: 10.1002/anie.202004239
   
   for ALPB and GBSA implicit solvation:
   * S. Ehlert, M. Stahn, S. Spicher, S. Grimme, J. Chem. Theory Comput.,
     2021, 17, 4250-4261. DOI: 10.1021/acs.jctc.1c00471
   
   for DFT-D4:
   * E. Caldeweyher, C. Bannwarth and S. Grimme, J. Chem. Phys., 2017,
     147, 034112. DOI: 10.1063/1.4993215
   * E. Caldeweyher, S. Ehlert, A. Hansen, H. Neugebauer, S. Spicher,
     C. Bannwarth and S. Grimme, J. Chem. Phys., 2019, 150, 154122.
     DOI: 10.1063/1.5090222
   * E. Caldeweyher, J.-M. Mewes, S. Ehlert and S. Grimme, Phys. Chem. Chem. Phys.
     2020, 22, 8499-8512. DOI: 10.1039/D0CP00502A
   
   for sTDA-xTB:
   * S. Grimme and C. Bannwarth, J. Chem. Phys., 2016, 145, 054103.
     DOI: 10.1063/1.4959605
   
   in the mass-spec context:
   * V. Asgeirsson, C. Bauer and S. Grimme, Chem. Sci., 2017, 8, 4879.
     DOI: 10.1039/c7sc00601b
   * J. Koopman and S. Grimme, ACS Omega 2019, 4, 12, 15120-15133.
     DOI: 10.1021/acsomega.9b02011
   
   for metadynamics refer to:
   * S. Grimme, J. Chem. Theory Comput., 2019, 155, 2847-2862
     DOI: 10.1021/acs.jctc.9b00143
   
   for SPH calculations refer to:
   * S. Spicher and S. Grimme, J. Chem. Theory Comput., 2021, 17, 1701-1714
     DOI: 10.1021/acs.jctc.0c01306
   
   with help from (in alphabetical order)
   P. Atkinson, C. Bannwarth, F. Bohle, G. Brandenburg, E. Caldeweyher
   M. Checinski, S. Dohm, S. Ehlert, S. Ehrlich, I. Gerasimov, C. Hölzer
   A. Katbashev, J. Koopman, C. Lavigne, S. Lehtola, F. März, M. Müller,
   F. Musil, H. Neugebauer, J. Pisarek, C. Plett, P. Pracht, F. Pultar,
   J. Seibert, P. Shushkov, S. Spicher, M. Stahn, M. Steiner, T. Strunk,
   J. Stückrath, T. Rose, and J. Unsleber
   
 * started run on 2024/01/11 at 20:35:48.863     

           -------------------------------------------------
          |                Calculation Setup                |
           -------------------------------------------------

          program call               : xtb gau_xtb.xyz -I xtb.inp --chrg 1 --uhf 0 --grad
          hostname                   : node39
          coordinate file            : gau_xtb.xyz
          omp threads                :                    12

   ID    Z sym.   atoms
    1    6 C      1, 3, 5, 7, 9, 11, 13-15, 18, 19
    2    8 O      2, 6, 8, 16
    3    7 N      4, 10, 12, 17
    4    1 H      20-34

           -------------------------------------------------
          |                 G F N 1 - x T B                 |
           -------------------------------------------------

        Reference                      10.1021/acs.jctc.7b00118
      * Hamiltonian:
        H0-scaling (s, p, d)           1.850000    2.250000    2.000000
        zeta-weighting                 0.000000
      * Dispersion:
        s8                             2.400000
        a1                             0.630000
        a2                             5.000000
        s9                             0.000000
      * Repulsion:
        kExp                           1.500000
        rExp                           1.000000
      * Coulomb:
        alpha                          2.000000
        third order                    atomic
        anisotropic                    false
      * Halogen bond correction:
        rad-scale                      1.300000
        damping                        0.440000


          ...................................................
          :                      SETUP                      :
          :.................................................:
          :  # basis functions                 106          :
          :  # atomic orbitals                 106          :
          :  # shells                           68          :
          :  # electrons                       102          :
          :  # halogen bonds                     0          :
          :  max. iterations                   250          :
          :  Hamiltonian                  GFN1-xTB          :
          :  restarted?                      false          :
          :  GBSA solvation                  false          :
          :  PC potential                    false          :
          :  electronic temp.          300.0000000     K    :
          :  accuracy                    1.0000000          :
          :  -> integral cutoff          0.2500000E+02      :
          :  -> integral neglect         0.1000000E-07      :
          :  -> SCF convergence          0.1000000E-05 Eh   :
          :  -> wf. convergence          0.2000000E-04 e    :
          :  Broyden damping             0.4000000          :
          ...................................................

 iter      E             dE          RMSdq      gap      omega  full diag
   1    -62.8879490 -0.628879E+02  0.841E+00    3.68       0.0  T
   2    -63.0802161 -0.192267E+00  0.497E+00    3.51       1.0  T
   3    -63.0686567  0.115595E-01  0.119E+00    3.67       1.0  T
   4    -63.0842136 -0.155570E-01  0.248E-01    3.53       1.0  T
   5    -63.0872422 -0.302860E-02  0.369E-02    3.58       1.0  T
   6    -63.0872978 -0.555927E-04  0.111E-02    3.58       1.5  T
   7    -63.0872993 -0.151791E-05  0.342E-03    3.58       5.0  T
   8    -63.0872996 -0.259966E-06  0.658E-04    3.58      26.1  T
   9    -63.0872996 -0.795642E-08  0.195E-04    3.58      87.8  T
  10    -63.0872996 -0.530740E-09  0.606E-05    3.58     282.9  T

   *** convergence criteria satisfied after 10 iterations ***

         #    Occupation            Energy/Eh            Energy/eV
      -------------------------------------------------------------
         1        2.0000           -1.0259989             -27.9189
       ...           ...                  ...                  ...
        45        2.0000           -0.6230387             -16.9537
        46        2.0000           -0.6105239             -16.6132
        47        2.0000           -0.5870876             -15.9755
        48        2.0000           -0.5592324             -15.2175
        49        2.0000           -0.5575907             -15.1728
        50        2.0000           -0.5552113             -15.1081
        51        2.0000           -0.5338845             -14.5277 (HOMO)
        52                         -0.4024696             -10.9518 (LUMO)
        53                         -0.3912406             -10.6462
        54                         -0.3496269              -9.5138
        55                         -0.3331030              -9.0642
        56                         -0.2971890              -8.0869
       ...                                ...                  ...
       106                          0.6066617              16.5081
      -------------------------------------------------------------
                  HL-Gap            0.1314149 Eh            3.5760 eV
             Fermi-level           -0.4681771 Eh          -12.7397 eV

 SCC (total)                   0 d,  0 h,  0 min,  0.259 sec
 SCC setup                      ...        0 min,  0.002 sec (  0.763%)
 Dispersion                     ...        0 min,  0.005 sec (  1.909%)
 classical contributions        ...        0 min,  0.009 sec (  3.367%)
 integral evaluation            ...        0 min,  0.013 sec (  5.141%)
 iterations                     ...        0 min,  0.213 sec ( 81.984%)
 molecular gradient             ...        0 min,  0.017 sec (  6.364%)
 printout                       ...        0 min,  0.001 sec (  0.380%)

         :::::::::::::::::::::::::::::::::::::::::::::::::::::
         ::                     SUMMARY                     ::
         :::::::::::::::::::::::::::::::::::::::::::::::::::::
         :: total energy             -62.503738181623 Eh    ::
         :: gradient norm              0.078500547295 Eh/a0 ::
         :: HOMO-LUMO gap              3.575980580161 eV    ::
         ::.................................................::
         :: SCC energy               -63.087299615024 Eh    ::
         :: -> electrostatic           0.317089399351 Eh    ::
         :: repulsion energy           0.605155409848 Eh    ::
         :: dispersion energy         -0.021593976446 Eh    ::
         :: halogen bond corr.         0.000000000000 Eh    ::
         :: add. restraining           0.000000000000 Eh    ::
         :: total charge               1.000000000000 e     ::
         :::::::::::::::::::::::::::::::::::::::::::::::::::::

           -------------------------------------------------
          |                Property Printout                |
           -------------------------------------------------

    * Orbital Energies and Occupations

         #    Occupation            Energy/Eh            Energy/eV
      -------------------------------------------------------------
         1        2.0000           -1.0259989             -27.9189
       ...           ...                  ...                  ...
        39        2.0000           -0.6582601             -17.9122
        40        2.0000           -0.6492659             -17.6674
        41        2.0000           -0.6478478             -17.6288
        42        2.0000           -0.6386655             -17.3790
        43        2.0000           -0.6344532             -17.2644
        44        2.0000           -0.6313683             -17.1804
        45        2.0000           -0.6230387             -16.9537
        46        2.0000           -0.6105239             -16.6132
        47        2.0000           -0.5870876             -15.9755
        48        2.0000           -0.5592324             -15.2175
        49        2.0000           -0.5575907             -15.1728
        50        2.0000           -0.5552113             -15.1081
        51        2.0000           -0.5338845             -14.5277 (HOMO)
        52                         -0.4024696             -10.9518 (LUMO)
        53                         -0.3912406             -10.6462
        54                         -0.3496269              -9.5138
        55                         -0.3331030              -9.0642
        56                         -0.2971890              -8.0869
        57                         -0.2871118              -7.8127
        58                         -0.2826821              -7.6922
        59                         -0.2683525              -7.3022
        60                         -0.2675415              -7.2802
        61                         -0.2638781              -7.1805
        62                         -0.2614974              -7.1157
       ...                                ...                  ...
       106                          0.6066617              16.5081
      -------------------------------------------------------------
                  HL-Gap            0.1314149 Eh            3.5760 eV
             Fermi-level           -0.4681771 Eh          -12.7397 eV

  Mulliken/CM5 charges         n(s)   n(p)   n(d)
     1C     0.17772  0.09813   1.003  2.819  0.000
     2O    -0.55213 -0.76976   1.694  4.858  0.000
     3C     0.02931  0.01470   1.092  2.878  0.000
     4N    -0.20158 -0.70354   1.472  3.730  0.000
     5C     0.18812  0.15502   1.037  2.775  0.000
     6O    -0.53957 -0.74759   1.690  4.850  0.000
     7C     0.20387  0.17163   1.033  2.763  0.000
     8O    -0.51171 -0.70724   1.696  4.816  0.000
     9C     0.07064  0.05991   1.082  2.847  0.000
    10N    -0.28994 -0.63172   1.439  3.851  0.000
    11C     0.28826  0.39088   0.989  2.723  0.000
    12N    -0.36930 -0.55188   1.541  3.828  0.000
    13C     0.13013  0.20793   1.039  2.831  0.000
    14C     0.04228  0.12183   1.042  2.916  0.000
    15C     0.46034  0.55909   0.980  2.560  0.000
    16O    -0.52841 -0.56732   1.725  4.803  0.000
    17N    -0.21156 -0.56866   1.422  3.789  0.000
    18C     0.07059  0.08906   1.019  2.910  0.000
    19C    -0.11497 -0.10868   1.070  3.045  0.000
    20H     0.26691  0.46577   0.733  0.000  0.000
    21H     0.27047  0.46477   0.730  0.000  0.000
    22H     0.26850  0.45251   0.731  0.000  0.000
    23H     0.27235  0.46317   0.728  0.000  0.000
    24H     0.35511  0.51765   0.645  0.000  0.000
    25H     0.37205  0.54193   0.628  0.000  0.000
    26H     0.34711  0.52131   0.653  0.000  0.000
    27H     0.06320  0.13857   0.937  0.000  0.000
    28H     0.04277  0.11094   0.957  0.000  0.000
    29H     0.08054  0.15498   0.919  0.000  0.000
    30H     0.07334  0.14723   0.927  0.000  0.000
    31H     0.04101  0.10786   0.959  0.000  0.000
    32H     0.08130  0.15195   0.919  0.000  0.000
    33H     0.06549  0.13056   0.935  0.000  0.000
    34H     0.05776  0.11898   0.942  0.000  0.000

Wiberg/Mayer (AO) data.
largest (>0.10) Wiberg bond orders for each atom

 ---------------------------------------------------------------------------
     #   Z sym  total        # sym  WBO       # sym  WBO       # sym  WBO
 ---------------------------------------------------------------------------
     1   6 C    3.919 --     3 C    0.985    33 H    0.972     2 O    0.970
                            34 H    0.968
     2   8 O    1.939 --     1 C    0.970    26 H    0.871
     3   6 C    3.889 --     1 C    0.985    32 H    0.968     5 C    0.961
                             4 N    0.891
     4   7 N    3.595 --    22 H    0.910     3 C    0.891    20 H    0.889
                             9 C    0.858
     5   6 C    3.927 --     6 O    0.994    31 H    0.968     3 C    0.961
                             7 C    0.940
     6   8 O    1.941 --     5 C    0.994    25 H    0.857
     7   6 C    3.927 --     8 O    1.009    30 H    0.961     9 C    0.953
                             5 C    0.940
     8   8 O    1.976 --     7 C    1.009    24 H    0.868
     9   6 C    3.870 --    19 C    1.008    29 H    0.957     7 C    0.953
                             4 N    0.858
    10   7 N    3.455 --    11 C    1.214    15 C    1.065    21 H    0.893
                            16 O    0.123
    11   6 C    3.935 --    12 N    1.609    10 N    1.214    27 H    0.966
    12   7 N    3.033 --    11 C    1.609    13 C    1.167
    13   6 C    3.971 --    14 C    1.368    19 C    1.236    12 N    1.167
    14   6 C    3.927 --    13 C    1.368    17 N    1.162    15 C    1.109
    15   6 C    3.915 --    16 O    1.632    14 C    1.109    10 N    1.065
    16   8 O    1.943 --    15 C    1.632    10 N    0.123
    17   7 N    3.508 --    18 C    1.251    14 C    1.162    23 H    0.889
    18   6 C    3.943 --    19 C    1.499    17 N    1.251    28 H    0.963
    19   6 C    3.948 --    18 C    1.499    13 C    1.236     9 C    1.008
    20   1 H    0.957 --     4 N    0.889
    21   1 H    0.935 --    10 N    0.893
    22   1 H    0.938 --     4 N    0.910
    23   1 H    0.927 --    17 N    0.889
    24   1 H    0.884 --     8 O    0.868
    25   1 H    0.870 --     6 O    0.857
    26   1 H    0.892 --     2 O    0.871
    27   1 H    1.005 --    11 C    0.966
    28   1 H    0.999 --    18 C    0.963
    29   1 H    1.008 --     9 C    0.957
    30   1 H    1.024 --     7 C    0.961
    31   1 H    1.005 --     5 C    0.968
    32   1 H    1.004 --     3 C    0.968
    33   1 H    1.007 --     1 C    0.972
    34   1 H    1.003 --     1 C    0.968
 ---------------------------------------------------------------------------

Topologies differ in total number of bonds
Writing topology from bond orders to xtbtopo.mol

 dipole moment from electron density (au)
     X       Y       Z   
  96.0743  88.4008  57.4191  total (Debye):  362.517


           -------------------------------------------------
          | TOTAL ENERGY              -62.503738181623 Eh   |
          | GRADIENT NORM               0.078500547295 Eh/α |
          | HOMO-LUMO GAP               3.575980580161 eV   |
           -------------------------------------------------

------------------------------------------------------------------------
 * finished run on 2024/01/11 at 20:35:49.180     
------------------------------------------------------------------------
 total:
 * wall-time:     0 d,  0 h,  0 min,  0.317 sec
 *  cpu-time:     0 d,  0 h,  0 min,  4.188 sec
 * ratio c/w:    13.204 speedup
 SCF:
 * wall-time:     0 d,  0 h,  0 min,  0.260 sec
 *  cpu-time:     0 d,  0 h,  0 min,  3.513 sec
 * ratio c/w:    13.527 speedup

