      -----------------------------------------------------------      
     |                   =====================                   |     
     |                           x T B                           |     
     |                   =====================                   |     
     |                         S. Grimme                         |     
     |          Mulliken Center for Theoretical Chemistry        |     
     |                    University of Bonn                     |     
      -----------------------------------------------------------      

   * xtb version 6.6.0 (2ccbbd7) compiled by 'conda@6fe65c42fc39' on 2023-02-10

   xtb is free software: you can redistribute it and/or modify it under
   the terms of the GNU Lesser General Public License as published by
   the Free Software Foundation, either version 3 of the License, or
   (at your option) any later version.
   
   xtb is distributed in the hope that it will be useful,
   but WITHOUT ANY WARRANTY; without even the implied warranty of
   MERCHANTABILITY or FITNESS FOR A PARTICULAR PURPOSE.  See the
   GNU Lesser General Public License for more details.
   
   Cite this work as:
   * C. Bannwarth, E. Caldeweyher, S. Ehlert, A. Hansen, P. Pracht,
     J. Seibert, S. Spicher, S. Grimme, WIREs Comput. Mol. Sci., 2020, 11,
     e01493. DOI: 10.1002/wcms.1493
   
   for GFN2-xTB:
   * C. Bannwarth, S. Ehlert and S. Grimme., J. Chem. Theory Comput., 2019,
     15, 1652-1671. DOI: 10.1021/acs.jctc.8b01176
   for GFN1-xTB:
   * S. Grimme, C. Bannwarth, P. Shushkov, J. Chem. Theory Comput., 2017,
     13, 1989-2009. DOI: 10.1021/acs.jctc.7b00118
   for GFN0-xTB:
   * P. Pracht, E. Caldeweyher, S. Ehlert, S. Grimme, ChemRxiv, 2019, preprint.
     DOI: 10.26434/chemrxiv.8326202.v1
   for GFN-FF:
   * S. Spicher and S. Grimme, Angew. Chem. Int. Ed., 2020, 59, 15665-15673.
     DOI: 10.1002/anie.202004239
   
   for ALPB and GBSA implicit solvation:
   * S. Ehlert, M. Stahn, S. Spicher, S. Grimme, J. Chem. Theory Comput.,
     2021, 17, 4250-4261. DOI: 10.1021/acs.jctc.1c00471
   
   for DFT-D4:
   * E. Caldeweyher, C. Bannwarth and S. Grimme, J. Chem. Phys., 2017,
     147, 034112. DOI: 10.1063/1.4993215
   * E. Caldeweyher, S. Ehlert, A. Hansen, H. Neugebauer, S. Spicher,
     C. Bannwarth and S. Grimme, J. Chem. Phys., 2019, 150, 154122.
     DOI: 10.1063/1.5090222
   * E. Caldeweyher, J.-M. Mewes, S. Ehlert and S. Grimme, Phys. Chem. Chem. Phys.
     2020, 22, 8499-8512. DOI: 10.1039/D0CP00502A
   
   for sTDA-xTB:
   * S. Grimme and C. Bannwarth, J. Chem. Phys., 2016, 145, 054103.
     DOI: 10.1063/1.4959605
   
   in the mass-spec context:
   * V. Asgeirsson, C. Bauer and S. Grimme, Chem. Sci., 2017, 8, 4879.
     DOI: 10.1039/c7sc00601b
   * J. Koopman and S. Grimme, ACS Omega 2019, 4, 12, 15120-15133.
     DOI: 10.1021/acsomega.9b02011
   
   for metadynamics refer to:
   * S. Grimme, J. Chem. Theory Comput., 2019, 155, 2847-2862
     DOI: 10.1021/acs.jctc.9b00143
   
   for SPH calculations refer to:
   * S. Spicher and S. Grimme, J. Chem. Theory Comput., 2021, 17, 1701-1714
     DOI: 10.1021/acs.jctc.0c01306
   
   with help from (in alphabetical order)
   P. Atkinson, C. Bannwarth, F. Bohle, G. Brandenburg, E. Caldeweyher
   M. Checinski, S. Dohm, S. Ehlert, S. Ehrlich, I. Gerasimov, C. Hölzer
   A. Katbashev, J. Koopman, C. Lavigne, S. Lehtola, F. März, M. Müller,
   F. Musil, H. Neugebauer, J. Pisarek, C. Plett, P. Pracht, F. Pultar,
   J. Seibert, P. Shushkov, S. Spicher, M. Stahn, M. Steiner, T. Strunk,
   J. Stückrath, T. Rose, and J. Unsleber
   
 * started run on 2024/01/09 at 12:55:30.239     

           -------------------------------------------------
          |                Calculation Setup                |
           -------------------------------------------------

          program call               : xtb gau_xtb.xyz --chrg 1 --uhf 0 --grad
          hostname                   : node32
          coordinate file            : gau_xtb.xyz
          omp threads                :                    12

   ID    Z sym.   atoms
    1    6 C      1, 3, 5, 7, 9, 11, 13-15, 18, 19
    2    8 O      2, 6, 8, 16
    3    7 N      4, 10, 12, 17
    4    1 H      20-34

           -------------------------------------------------
          |                 G F N 2 - x T B                 |
           -------------------------------------------------

        Reference                      10.1021/acs.jctc.8b01176
      * Hamiltonian:
        H0-scaling (s, p, d)           1.850000    2.230000    2.230000
        zeta-weighting                 0.500000
      * Dispersion:
        s8                             2.700000
        a1                             0.520000
        a2                             5.000000
        s9                             5.000000
      * Repulsion:
        kExp                           1.500000    1.000000
        rExp                           1.000000
      * Coulomb:
        alpha                          2.000000
        third order                    shell-resolved
        anisotropic                    true
        a3                             3.000000
        a5                             4.000000
        cn-shift                       1.200000
        cn-exp                         4.000000
        max-rad                        5.000000


          ...................................................
          :                      SETUP                      :
          :.................................................:
          :  # basis functions                  91          :
          :  # atomic orbitals                  91          :
          :  # shells                           53          :
          :  # electrons                       102          :
          :  max. iterations                   250          :
          :  Hamiltonian                  GFN2-xTB          :
          :  restarted?                      false          :
          :  GBSA solvation                  false          :
          :  PC potential                    false          :
          :  electronic temp.          300.0000000     K    :
          :  accuracy                    1.0000000          :
          :  -> integral cutoff          0.2500000E+02      :
          :  -> integral neglect         0.1000000E-07      :
          :  -> SCF convergence          0.1000000E-05 Eh   :
          :  -> wf. convergence          0.1000000E-03 e    :
          :  Broyden damping             0.4000000          :
          ...................................................

 iter      E             dE          RMSdq      gap      omega  full diag
   1    -59.1339744 -0.591340E+02  0.448E+00    3.58       0.0  T
   2    -59.3737848 -0.239810E+00  0.267E+00    3.57       1.0  T
   3    -59.3870527 -0.132679E-01  0.147E+00    3.74       1.0  T
   4    -59.3817062  0.534653E-02  0.668E-01    3.43       1.0  T
   5    -59.3936481 -0.119419E-01  0.133E-01    3.63       1.0  T
   6    -59.3938333 -0.185272E-03  0.573E-02    3.62       1.0  T
   7    -59.3938470 -0.136453E-04  0.225E-02    3.62       1.0  T
   8    -59.3938520 -0.498568E-05  0.794E-03    3.62       2.2  T
   9    -59.3938523 -0.369959E-06  0.334E-03    3.62       5.1  T
  10    -59.3938524 -0.775340E-07  0.121E-03    3.62      14.2  T
  11    -59.3938524 -0.189839E-08  0.594E-04    3.62      28.9  T
  12    -59.3938524 -0.702431E-08  0.165E-04    3.62     104.1  T

   *** convergence criteria satisfied after 12 iterations ***

         #    Occupation            Energy/Eh            Energy/eV
      -------------------------------------------------------------
         1        2.0000           -0.8788764             -23.9154
       ...           ...                  ...                  ...
        45        2.0000           -0.5710000             -15.5377
        46        2.0000           -0.5627795             -15.3140
        47        2.0000           -0.5559323             -15.1277
        48        2.0000           -0.5274986             -14.3540
        49        2.0000           -0.5111412             -13.9089
        50        2.0000           -0.5040723             -13.7165
        51        2.0000           -0.4991096             -13.5815 (HOMO)
        52                         -0.3661509              -9.9635 (LUMO)
        53                         -0.3549324              -9.6582
        54                         -0.3090363              -8.4093
        55                         -0.2500423              -6.8040
        56                         -0.2236433              -6.0856
       ...                                ...                  ...
        91                          0.5900624              16.0564
      -------------------------------------------------------------
                  HL-Gap            0.1329587 Eh            3.6180 eV
             Fermi-level           -0.4326302 Eh          -11.7725 eV

 SCC (total)                   0 d,  0 h,  0 min,  0.217 sec
 SCC setup                      ...        0 min,  0.001 sec (  0.411%)
 Dispersion                     ...        0 min,  0.001 sec (  0.664%)
 classical contributions        ...        0 min,  0.000 sec (  0.215%)
 integral evaluation            ...        0 min,  0.011 sec (  5.098%)
 iterations                     ...        0 min,  0.173 sec ( 79.570%)
 molecular gradient             ...        0 min,  0.030 sec ( 13.838%)
 printout                       ...        0 min,  0.000 sec (  0.120%)

         :::::::::::::::::::::::::::::::::::::::::::::::::::::
         ::                     SUMMARY                     ::
         :::::::::::::::::::::::::::::::::::::::::::::::::::::
         :: total energy             -58.757914611924 Eh    ::
         :: gradient norm              0.059983435775 Eh/a0 ::
         :: HOMO-LUMO gap              3.617991608716 eV    ::
         ::.................................................::
         :: SCC energy               -59.393852421516 Eh    ::
         :: -> isotropic ES            0.196914048605 Eh    ::
         :: -> anisotropic ES         -0.001840597761 Eh    ::
         :: -> anisotropic XC          0.014226993898 Eh    ::
         :: -> dispersion             -0.034209368421 Eh    ::
         :: repulsion energy           0.635543643105 Eh    ::
         :: add. restraining           0.000000000000 Eh    ::
         :: total charge               1.000000000000 e     ::
         :::::::::::::::::::::::::::::::::::::::::::::::::::::

           -------------------------------------------------
          |                Property Printout                |
           -------------------------------------------------

    * Orbital Energies and Occupations

         #    Occupation            Energy/Eh            Energy/eV
      -------------------------------------------------------------
         1        2.0000           -0.8788764             -23.9154
       ...           ...                  ...                  ...
        39        2.0000           -0.6129285             -16.6786
        40        2.0000           -0.6119548             -16.6521
        41        2.0000           -0.6072551             -16.5243
        42        2.0000           -0.6000629             -16.3285
        43        2.0000           -0.5905630             -16.0700
        44        2.0000           -0.5822902             -15.8449
        45        2.0000           -0.5710000             -15.5377
        46        2.0000           -0.5627795             -15.3140
        47        2.0000           -0.5559323             -15.1277
        48        2.0000           -0.5274986             -14.3540
        49        2.0000           -0.5111412             -13.9089
        50        2.0000           -0.5040723             -13.7165
        51        2.0000           -0.4991096             -13.5815 (HOMO)
        52                         -0.3661509              -9.9635 (LUMO)
        53                         -0.3549324              -9.6582
        54                         -0.3090363              -8.4093
        55                         -0.2500423              -6.8040
        56                         -0.2236433              -6.0856
        57                         -0.2040245              -5.5518
        58                         -0.1763957              -4.8000
        59                         -0.1633025              -4.4437
        60                         -0.1502960              -4.0898
        61                         -0.1227844              -3.3411
        62                         -0.1081292              -2.9423
       ...                                ...                  ...
        91                          0.5900624              16.0564
      -------------------------------------------------------------
                  HL-Gap            0.1329587 Eh            3.6180 eV
             Fermi-level           -0.4326302 Eh          -11.7725 eV

     #   Z          covCN         q      C6AA      α(0)
     1   6 C        3.673     0.051    19.943     6.400
     2   8 O        1.655    -0.425    21.337     6.236
     3   6 C        3.777    -0.016    20.891     6.512
     4   7 N        3.533    -0.067    22.539     7.051
     5   6 C        3.712     0.092    19.188     6.259
     6   8 O        1.656    -0.417    21.189     6.214
     7   6 C        3.715     0.091    19.191     6.259
     8   8 O        1.652    -0.391    20.670     6.137
     9   6 C        3.783     0.003    20.541     6.456
    10   7 N        2.707    -0.131    23.842     7.252
    11   6 C        2.853     0.131    25.120     8.215
    12   7 N        1.832    -0.247    27.283     7.740
    13   6 C        3.112     0.064    26.428     8.422
    14   6 C        3.095    -0.004    28.006     8.673
    15   6 C        2.759     0.270    22.432     7.756
    16   8 O        0.858    -0.404    21.763     6.255
    17   7 N        2.779    -0.058    22.361     7.023
    18   6 C        3.035    -0.013    28.308     8.727
    19   6 C        3.060    -0.059    29.406     8.893
    20   1 H        0.859     0.269     0.814     1.414
    21   1 H        0.858     0.217     1.024     1.585
    22   1 H        0.859     0.244     0.907     1.492
    23   1 H        0.860     0.207     1.071     1.621
    24   1 H        0.800     0.313     0.685     1.300
    25   1 H        0.805     0.320     0.664     1.280
    26   1 H        0.804     0.307     0.699     1.314
    27   1 H        0.926     0.083     1.951     2.184
    28   1 H        0.926     0.053     2.284     2.363
    29   1 H        0.924     0.104     1.751     2.069
    30   1 H        0.924     0.110     1.696     2.037
    31   1 H        0.924     0.053     2.279     2.361
    32   1 H        0.924     0.099     1.794     2.094
    33   1 H        0.924     0.081     1.965     2.192
    34   1 H        0.924     0.070     2.089     2.260

 Mol. C6AA /au·bohr⁶  :      11797.800870
 Mol. C8AA /au·bohr⁸  :     271670.955303
 Mol. α(0) /au        :        164.046419


Wiberg/Mayer (AO) data.
largest (>0.10) Wiberg bond orders for each atom

 ---------------------------------------------------------------------------
     #   Z sym  total        # sym  WBO       # sym  WBO       # sym  WBO
 ---------------------------------------------------------------------------
     1   6 C    3.952 --     2 O    1.020     3 C    0.974    33 H    0.966
                            34 H    0.962
     2   8 O    1.989 --     1 C    1.020    26 H    0.886
     3   6 C    3.918 --     1 C    0.974    32 H    0.962     5 C    0.956
                             4 N    0.931
     4   7 N    3.712 --     3 C    0.931    22 H    0.923     9 C    0.904
                            20 H    0.877
     5   6 C    3.958 --     6 O    1.026    31 H    0.964     3 C    0.956
                             7 C    0.933
     6   8 O    1.988 --     5 C    1.026    25 H    0.882
     7   6 C    3.956 --     8 O    1.047    30 H    0.951     9 C    0.950
                             5 C    0.933
     8   8 O    2.021 --     7 C    1.047    24 H    0.883
     9   6 C    3.905 --    19 C    1.005     7 C    0.950    29 H    0.947
                             4 N    0.904
    10   7 N    3.574 --    11 C    1.255    15 C    1.081    21 H    0.919
                            16 O    0.149    12 N    0.101
    11   6 C    3.959 --    12 N    1.617    10 N    1.255    27 H    0.950
    12   7 N    3.061 --    11 C    1.617    13 C    1.185    10 N    0.101
    13   6 C    3.979 --    14 C    1.346    19 C    1.240    12 N    1.185
    14   6 C    3.952 --    13 C    1.346    17 N    1.204    15 C    1.095
    15   6 C    3.959 --    16 O    1.687    14 C    1.095    10 N    1.081
    16   8 O    2.042 --    15 C    1.687    10 N    0.149
    17   7 N    3.609 --    18 C    1.270    14 C    1.204    23 H    0.929
    18   6 C    3.953 --    19 C    1.498    17 N    1.270    28 H    0.957
    19   6 C    3.952 --    18 C    1.498    13 C    1.240     9 C    1.005
    20   1 H    0.928 --     4 N    0.877
    21   1 H    0.952 --    10 N    0.919
    22   1 H    0.940 --     4 N    0.923
    23   1 H    0.957 --    17 N    0.929
    24   1 H    0.902 --     8 O    0.883
    25   1 H    0.897 --     6 O    0.882
    26   1 H    0.906 --     2 O    0.886
    27   1 H    0.993 --    11 C    0.950
    28   1 H    0.996 --    18 C    0.957
    29   1 H    0.989 --     9 C    0.947
    30   1 H    0.988 --     7 C    0.951
    31   1 H    0.997 --     5 C    0.964
    32   1 H    0.990 --     3 C    0.962
    33   1 H    0.993 --     1 C    0.966
    34   1 H    0.995 --     1 C    0.962
 ---------------------------------------------------------------------------

Topologies differ in total number of bonds
Writing topology from bond orders to xtbtopo.mol

molecular dipole:
                 x           y           z       tot (Debye)
 q only:       96.589      88.027      57.562
   full:       96.216      88.292      57.394     362.563
molecular quadrupole (traceless):
                xx          xy          yy          xz          yz          zz
 q only:     3813.122   12757.589    1415.827    8333.727    7609.964   -5228.949
  q+dip:     3728.481   12752.646    1505.485    8273.995    7612.034   -5233.966
   full:     3727.171   12752.337    1506.621    8273.850    7613.331   -5233.792


           -------------------------------------------------
          | TOTAL ENERGY              -58.757914611924 Eh   |
          | GRADIENT NORM               0.059983435775 Eh/α |
          | HOMO-LUMO GAP               3.617991608716 eV   |
           -------------------------------------------------

------------------------------------------------------------------------
 * finished run on 2024/01/09 at 12:55:30.556     
------------------------------------------------------------------------
 total:
 * wall-time:     0 d,  0 h,  0 min,  0.316 sec
 *  cpu-time:     0 d,  0 h,  0 min,  3.740 sec
 * ratio c/w:    11.838 speedup
 SCF:
 * wall-time:     0 d,  0 h,  0 min,  0.217 sec
 *  cpu-time:     0 d,  0 h,  0 min,  2.595 sec
 * ratio c/w:    11.959 speedup

