 Entering Gaussian System, Link 0=g16
 AtFile(1): /share/home/chem-zhonglh/yanzy/env/amber14_mod.prm
            !
            ! Non-bonded interaction
            !
            NonBon 3 1 0 0 0.000 0.000 0.500 0.000 0.000 -1.000
            !
            ! Stretches
            !
            HrmStr1 OW HW  553.0  0.9572
            HrmStr1 HW HW  553.0  1.5136
            HrmStr1 C  C   310.0  1.525
            HrmStr1 C  CA  469.0  1.409
            HrmStr1 C  CB  447.0  1.419
            HrmStr1 C  CM  410.0  1.444
            HrmStr1 C  CS  410.0  1.444
            HrmStr1 C  CT  317.0  1.522
            HrmStr1 C  CX  317.0  1.522
            HrmStr1 C  N   490.0  1.335
            HrmStr1 C  N*  424.0  1.383
            HrmStr1 C  NA  418.0  1.388
            HrmStr1 C  NC  457.0  1.358
            HrmStr1 C  O   570.0  1.229
            HrmStr1 C  O2  656.0  1.250
            HrmStr1 C  OH  450.0  1.364
            HrmStr1 C  OS  450.0  1.323
            HrmStr1 C  H4  367.0  1.080
            HrmStr1 C  H5  367.0  1.080
            HrmStr1 CA CA  469.0  1.400
            HrmStr1 CA CB  469.0  1.404
            HrmStr1 CA CM  427.0  1.433
            HrmStr1 CA CS  427.0  1.433
            HrmStr1 CA CN  469.0  1.400
            HrmStr1 CA CT  317.0  1.510
            HrmStr1 CA HA  367.0  1.080
            HrmStr1 CA H4  367.0  1.080
            HrmStr1 CA N2  481.0  1.340
            HrmStr1 CA NA  427.0  1.381
            HrmStr1 CA NC  483.0  1.339
            HrmStr1 CA OH  450.0  1.364
            HrmStr1 CB CB  520.0  1.370
            HrmStr1 CB N*  436.0  1.374
            HrmStr1 CB NB  414.0  1.391
            HrmStr1 CB NC  461.0  1.354
            HrmStr1 CD HA  367.0  1.080
            HrmStr1 CD CD  469.0  1.400
            HrmStr1 CD CM  549.0  1.350
            HrmStr1 CD CS  549.0  1.350
            HrmStr1 CD CT  317.0  1.510
            HrmStr1 CK H5  367.0  1.080
            HrmStr1 CK N*  440.0  1.371
            HrmStr1 CK NB  529.0  1.304
            HrmStr1 CP H5  367.0  1.080
            HrmStr1 CP N*  440.0  1.371
            HrmStr1 CP NB  529.0  1.304
            HrmStr1 CM CM  549.0  1.350
            HrmStr1 CM CT  317.0  1.510
            HrmStr1 CM HA  367.0  1.080
            HrmStr1 CM H4  367.0  1.080
            HrmStr1 CM H5  367.0  1.080
            HrmStr1 CM N*  448.0  1.365
            HrmStr1 CM OS  480.0  1.240
            HrmStr1 CS CS  549.0  1.350
            HrmStr1 CS CT  317.0  1.510
            HrmStr1 CS HA  367.0  1.080
            HrmStr1 CS H4  367.0  1.080
            HrmStr1 CS H5  367.0  1.080
            HrmStr1 CS N*  448.0  1.365
            HrmStr1 CS OS  480.0  1.240
            HrmStr1 CQ H5  367.0  1.080
            HrmStr1 CQ NC  502.0  1.324
            HrmStr1 CT CT  310.0  1.526
            HrmStr1 CX CT  310.0  1.526
            HrmStr1 CT HC  340.0  1.090
            HrmStr1 CT H1  340.0  1.090
            HrmStr1 CX H1  340.0  1.090
            HrmStr1 CT H2  340.0  1.090
            HrmStr1 CT H3  340.0  1.090
            HrmStr1 CT HP  340.0  1.090
            HrmStr1 CX HP  340.0  1.090
            HrmStr1 CT N*  337.0  1.475
            HrmStr1 CT N2  337.0  1.463
            HrmStr1 CT OH  320.0  1.410
            HrmStr1 CT OS  320.0  1.410
            HrmStr1 C* HC  367.0  1.080
            HrmStr1 C* CB  388.0  1.459
            HrmStr1 C* CT  317.0  1.495
            HrmStr1 C* CW  546.0  1.352
            HrmStr1 CB CN  447.0  1.419
            HrmStr1 CC CT  317.0  1.504
            HrmStr1 CC CV  512.0  1.375
            HrmStr1 CC CW  518.0  1.371
            HrmStr1 CC NA  422.0  1.385
            HrmStr1 CC NB  410.0  1.394
            HrmStr1 CN NA  428.0  1.380
            HrmStr1 CR H5  367.0  1.080
            HrmStr1 CR NA  477.0  1.343
            HrmStr1 CR NB  488.0  1.335
            HrmStr1 CT N   337.0  1.449
            HrmStr1 CX N   337.0  1.449
            HrmStr1 CT N3  367.0  1.471
            HrmStr1 CX N3  367.0  1.471
            HrmStr1 CT NT  367.0  1.471
            HrmStr1 CT S   227.0  1.810
            HrmStr1 CT SH  237.0  1.810
            HrmStr1 CT CY  400.0  1.458
            HrmStr1 CT CZ  400.0  1.459
            HrmStr1 CV H4  367.0  1.080
            HrmStr1 CV NB  410.0  1.394
            HrmStr1 CW H4  367.0  1.080
            HrmStr1 CW NA  427.0  1.381
            HrmStr1 CY NY  600.0  1.150
            HrmStr1 CZ CZ  600.0  1.206
            HrmStr1 CZ HZ  400.0  1.056
            HrmStr1 OP P   525.0  1.480
            HrmStr1 O2 P   525.0  1.480
            HrmStr1 OH P   230.0  1.610
            HrmStr1 OS P   230.0  1.610
            HrmStr1 NA P   250.0  1.840
            HrmStr1 H  N2  434.0  1.010
            HrmStr1 H  N*  434.0  1.010
            HrmStr1 H  NA  434.0  1.010
            HrmStr1 H  N   434.0  1.010
            HrmStr1 H  N3  434.0  1.010
            HrmStr1 H  NT  434.0  1.010
            HrmStr1 HO OH  553.0  0.960
            HrmStr1 HO OS  553.0  0.960
            HrmStr1 HS SH  274.0  1.336
            HrmStr1 S  S   166.0  2.038
            HrmStr1 F  CT  367.0  1.380
            HrmStr1 Cl CT  232.0  1.766
            HrmStr1 Br CT  159.0  1.944
            HrmStr1 I  CT  148.0  2.166
            HrmStr1 F  CA  386.0  1.359
            HrmStr1 Cl CA  193.0  1.727
            HrmStr1 I  CA  171.0  2.075
            HrmStr1 Br CA  172.0  1.890
            HrmStr1 EP O   600.0  0.200
            HrmStr1 EP OH  600.0  0.200
            HrmStr1 EP OS  600.0  0.200
            HrmStr1 EP N3  600.0  0.200
            HrmStr1 EP NT  600.0  0.200
            HrmStr1 EP NB  600.0  0.200
            HrmStr1 EP NC  600.0  0.200
            HrmStr1 EP S   600.0  0.700
            HrmStr1 EP SH  600.0  0.700
            HrmStr1 CI H1  340.0  1.090
            HrmStr1 CI CT  310.0  1.526
            HrmStr1 OS CI  320.0  1.410
            HrmStr1 OH CI  320.0  1.410
            HrmStr1 C5 H5  367.0  1.080
            HrmStr1 C5 N*  440.0  1.371
            HrmStr1 C5 NB  529.0  1.304
            HrmStr1 C  C4  410.0  1.444
            HrmStr1 CA C4  427.0  1.433
            HrmStr1 C4 C4  549.0  1.350
            HrmStr1 C4 CT  317.0  1.510
            HrmStr1 C4 HA  367.0  1.080
            HrmStr1 C4 H4  367.0  1.080
            HrmStr1 C4 N*  448.0  1.365
            HrmStr1 C8 C8  310.0  1.5260
            HrmStr1 C8 CX  310.0  1.5260
            HrmStr1 C8 H1  340.0  1.0900
            HrmStr1 C8 HC  340.0  1.0900
            HrmStr1 C8 HP  340.0  1.0900
            HrmStr1 C8 N2  337.0  1.4630
            HrmStr1 C8 N3  367.0  1.4710
            HrmStr1 CO O2  656.0  1.2500
            !
            ! Angles
            !
            HrmBnd1 HW OW HW    100.   104.52
            HrmBnd1 HW HW OW      0.   127.74
            HrmBnd1 C  C  O     80.0   120.00
            HrmBnd1 C  C  OH    80.0   120.00
            HrmBnd1 CA C  CA    63.0   120.00
            HrmBnd1 CA C  OH    70.0   120.00
            HrmBnd1 CA C  OS    70.0   120.00
            HrmBnd1 CC NA P     76.7   125.10
            HrmBnd1 CR NA P     76.7   125.10
            HrmBnd1 NA P  OP    42.9   102.38
            HrmBnd1 CB C  NA    70.0   111.30
            HrmBnd1 CB C  O     80.0   128.80
            HrmBnd1 CM C  NA    70.0   114.10
            HrmBnd1 CM C  O     80.0   125.30
            HrmBnd1 CS C  NA    70.0   114.10
            HrmBnd1 CS C  O     80.0   125.30
            HrmBnd1 CT C  O     80.0   120.40
            HrmBnd1 CX C  O     80.0   120.40
            HrmBnd1 CT C  O2    70.0   117.00
            HrmBnd1 CX C  O2    70.0   117.00
            HrmBnd1 CT C  N     70.0   116.60
            HrmBnd1 CX C  N     70.0   116.60
            HrmBnd1 CT C  CT    63.0   117.00
            HrmBnd1 CT C  OS    80.0   115.00
            HrmBnd1 CT C  OH    80.0   110.00
            HrmBnd1 CX C  OH    80.0   110.00
            HrmBnd1 N* C  NA    70.0   115.40
            HrmBnd1 N* C  NC    70.0   118.60
            HrmBnd1 N* C  O     80.0   120.90
            HrmBnd1 NA C  O     80.0   120.60
            HrmBnd1 NC C  O     80.0   122.50
            HrmBnd1 N  C  O     80.0   122.90
            HrmBnd1 O  C  O     80.0   126.00
            HrmBnd1 O  C  OH    80.0   120.00
            HrmBnd1 O  C  OS    80.0   125.00
            HrmBnd1 O2 C  O2    80.0   126.00
            HrmBnd1 H4 C  C     50.0   120.00
            HrmBnd1 H4 C  CM    50.0   115.00
            HrmBnd1 H4 C  CS    50.0   115.00
            HrmBnd1 H4 C  CT    50.0   115.00
            HrmBnd1 H4 C  O     50.0   120.00
            HrmBnd1 H4 C  OH    50.0   120.00
            HrmBnd1 H5 C  N     50.0   120.00
            HrmBnd1 H5 C  O     50.0   119.00
            HrmBnd1 H5 C  OH    50.0   107.00
            HrmBnd1 H5 C  OS    50.0   107.00
            HrmBnd1 C  CA CA    63.0   120.00
            HrmBnd1 C  CA HA    50.0   120.00
            HrmBnd1 CA CA CA    63.0   120.00
            HrmBnd1 CA CA CB    63.0   120.00
            HrmBnd1 CA CA CT    70.0   120.00
            HrmBnd1 CA CA HA    50.0   120.00
            HrmBnd1 CA CA H4    50.0   120.00
            HrmBnd1 CA CA OH    70.0   120.00
            HrmBnd1 CA CA CN    63.0   120.00
            HrmBnd1 CB CA HA    50.0   120.00
            HrmBnd1 CB CA H4    50.0   120.00
            HrmBnd1 CB CA N2    70.0   123.50
            HrmBnd1 CB CA NC    70.0   117.30
            HrmBnd1 CM CA N2    70.0   120.10
            HrmBnd1 CM CA NC    70.0   121.50
            HrmBnd1 CS CA N2    70.0   120.10
            HrmBnd1 CS CA NC    70.0   121.50
            HrmBnd1 CN CA HA    50.0   120.00
            HrmBnd1 NA CA NC    70.0   123.30
            HrmBnd1 N2 CA NA    70.0   116.00
            HrmBnd1 N2 CA NC    70.0   119.30
            HrmBnd1 N2 CA N2    70.0   120.00
            HrmBnd1 F  CA CA    70.0   121.00
            HrmBnd1 Cl CA CA    70.0   118.80
            HrmBnd1 Br CA CA    70.0   118.80
            HrmBnd1 I  CA CA    70.0   118.80
            HrmBnd1 C  CB CB    63.0   119.20
            HrmBnd1 C  CB NB    70.0   130.00
            HrmBnd1 CA CB CB    63.0   117.30
            HrmBnd1 CA CB NB    70.0   132.40
            HrmBnd1 CB CB N*    70.0   106.20
            HrmBnd1 CB CB NB    70.0   110.40
            HrmBnd1 CB CB NC    70.0   127.70
            HrmBnd1 C* CB CA    63.0   134.90
            HrmBnd1 C* CB CN    63.0   108.80
            HrmBnd1 CA CB CN    63.0   116.20
            HrmBnd1 N* CB NC    70.0   126.20
            HrmBnd1 CD CD CM    63.0   120.00
            HrmBnd1 CD CD CS    63.0   120.00
            HrmBnd1 CD CD CT    70.0   120.00
            HrmBnd1 CM CD CT    70.0   120.00
            HrmBnd1 CS CD CT    70.0   120.00
            HrmBnd1 HA CD HA    35.0   119.00
            HrmBnd1 HA CD CD    50.0   120.00
            HrmBnd1 HA CD CM    50.0   120.00
            HrmBnd1 HA CD CS    50.0   120.00
            HrmBnd1 H5 CK N*    50.0   123.05
            HrmBnd1 H5 CK NB    50.0   123.05
            HrmBnd1 N* CK NB    70.0   113.90
            HrmBnd1 H5 CP N*    50.0   123.05
            HrmBnd1 H5 CP NB    50.0   123.05
            HrmBnd1 N* CP NB    70.0   113.90
            HrmBnd1 C  CM CM    63.0   120.70
            HrmBnd1 C  CM CT    70.0   119.70
            HrmBnd1 C  CM HA    50.0   119.70
            HrmBnd1 C  CM H4    50.0   119.70
            HrmBnd1 CA CM CM    63.0   117.00
            HrmBnd1 CA CM HA    50.0   123.30
            HrmBnd1 CA CM H4    50.0   123.30
            HrmBnd1 CM CM CT    70.0   119.70
            HrmBnd1 CM CM HA    50.0   119.70
            HrmBnd1 CM CM H4    50.0   119.70
            HrmBnd1 CM CM N*    70.0   121.20
            HrmBnd1 CM CM OS    80.0   125.00
            HrmBnd1 H4 CM N*    50.0   119.10
            HrmBnd1 H4 CM OS    50.0   113.00
            HrmBnd1 HA CM HA    35.0   120.00
            HrmBnd1 HA CM CD    50.0   120.00
            HrmBnd1 HA CM CT    50.0   120.00
            HrmBnd1 C  CS CS    63.0   120.70
            HrmBnd1 C  CS CT    70.0   119.70
            HrmBnd1 C  CS HA    50.0   119.70
            HrmBnd1 C  CS H4    50.0   119.70
            HrmBnd1 CA CS CS    63.0   117.00
            HrmBnd1 CA CS HA    50.0   123.30
            HrmBnd1 CA CS H4    50.0   123.30
            HrmBnd1 CM CS CT    70.0   119.70
            HrmBnd1 CS CS HA    50.0   119.70
            HrmBnd1 CS CS H4    50.0   119.70
            HrmBnd1 CS CS N*    70.0   121.20
            HrmBnd1 CS CS OS    80.0   125.00
            HrmBnd1 H4 CS N*    50.0   119.10
            HrmBnd1 H4 CS OS    50.0   113.00
            HrmBnd1 HA CS HA    35.0   120.00
            HrmBnd1 HA CS CD    50.0   120.00
            HrmBnd1 HA CS CT    50.0   120.00
            HrmBnd1 NC CQ NC    70.0   129.10
            HrmBnd1 H5 CQ NC    50.0   115.45
            HrmBnd1 H1 CT H1    35.0   109.50
            HrmBnd1 H1 CX H1    35.0   109.50
            HrmBnd1 H1 CT N*    50.0   109.50
            HrmBnd1 H1 CT OH    50.0   109.50
            HrmBnd1 H1 CT OS    50.0   109.50
            HrmBnd1 H1 CT CM    50.0   109.50
            HrmBnd1 H1 CT CS    50.0   109.50
            HrmBnd1 H1 CT CY    50.0   110.00
            HrmBnd1 H1 CT CZ    50.0   110.00
            HrmBnd1 H1 CT N     50.0   109.50
            HrmBnd1 H1 CX N     50.0   109.50
            HrmBnd1 H1 CT S     50.0   109.50
            HrmBnd1 H1 CT SH    50.0   109.50
            HrmBnd1 H1 CT N2    50.0   109.50
            HrmBnd1 H1 CT NT    50.0   109.50
            HrmBnd1 H2 CT H2    35.0   109.50
            HrmBnd1 H2 CT N*    50.0   109.50
            HrmBnd1 H2 CT OS    50.0   109.50
            HrmBnd1 HP CT HP    35.0   109.50
            HrmBnd1 HP CX HP    35.0   109.50
            HrmBnd1 HP CT N3    50.0   109.50
            HrmBnd1 HP CX N3    50.0   109.50
            HrmBnd1 HC CT HC    35.0   109.50
            HrmBnd1 HC CT CM    50.0   109.50
            HrmBnd1 HC CT CS    50.0   109.50
            HrmBnd1 HC CT CD    50.0   109.50
            HrmBnd1 HC CT CZ    50.0   110.00
            HrmBnd1 C  CT H1    50.0   109.50
            HrmBnd1 C  CX H1    50.0   109.50
            HrmBnd1 C  CT HP    50.0   109.50
            HrmBnd1 C  CX HP    50.0   109.50
            HrmBnd1 C  CT HC    50.0   109.50
            HrmBnd1 C  CT N     63.0   110.10
            HrmBnd1 C  CX N     63.0   110.10
            HrmBnd1 C  CT N3    80.0   111.20
            HrmBnd1 C  CX N3    80.0   111.20
            HrmBnd1 C  CT CT    63.0   111.10
            HrmBnd1 C  CT CX    63.0   111.10
            HrmBnd1 C  CX CT    63.0   111.10
            HrmBnd1 C  CT OS    60.0   109.50
            HrmBnd1 CA CT HC    50.0   109.50
            HrmBnd1 CC CT CT    63.0   113.10
            HrmBnd1 CC CT CX    63.0   113.10
            HrmBnd1 CC CT HC    50.0   109.50
            HrmBnd1 CM CT CT    63.0   111.00
            HrmBnd1 CM CT OS    50.0   109.50
            HrmBnd1 CS CT CT    63.0   111.00
            HrmBnd1 CS CT OS    50.0   109.50
            HrmBnd1 CT CT CT    40.0   109.50
            HrmBnd1 CT CT CX    40.0   109.50
            HrmBnd1 CT CT HC    50.0   109.50
            HrmBnd1 CX CT HC    50.0   109.50
            HrmBnd1 CT CT H1    50.0   109.50
            HrmBnd1 CT CX H1    50.0   109.50
            HrmBnd1 CX CT H1    50.0   109.50
            HrmBnd1 CT CT H2    50.0   109.50
            HrmBnd1 CT CT HP    50.0   109.50
            HrmBnd1 CT CX HP    50.0   109.50
            HrmBnd1 CT CT N*    50.0   109.50
            HrmBnd1 CT CT OH    50.0   109.50
            HrmBnd1 CX CT OH    50.0   109.50
            HrmBnd1 CT CT OS    50.0   109.50
            HrmBnd1 CT CT S     50.0   114.70
            HrmBnd1 CX CT S     50.0   114.70
            HrmBnd1 CT CT SH    50.0   108.60
            HrmBnd1 CX CT SH    50.0   108.60
            HrmBnd1 CT CT CA    63.0   114.00
            HrmBnd1 CX CT CA    63.0   114.00
            HrmBnd1 CT CT N2    80.0   111.20
            HrmBnd1 CT CT N     80.0   109.70
            HrmBnd1 CT CX N     80.0   109.70
            HrmBnd1 CT CT N3    80.0   111.20
            HrmBnd1 CT CX N3    80.0   111.20
            HrmBnd1 CT CT NT    80.0   111.20
            HrmBnd1 CT CT CY    63.0   110.00
            HrmBnd1 CT CT CZ    63.0   110.00
            HrmBnd1 C* CT CT    63.0   115.60
            HrmBnd1 C* CT CX    63.0   115.60
            HrmBnd1 C* CT HC    50.0   109.50
            HrmBnd1 OS CT OS   160.0   101.00
            HrmBnd1 OS CT CY    50.0   110.00
            HrmBnd1 OS CT CZ    50.0   110.00
            HrmBnd1 OS CT N*    50.0   109.50
            HrmBnd1 F  CT F     77.0   109.10
            HrmBnd1 F  CT H1    50.0   109.50
            HrmBnd1 F  CT CT    50.0   109.00
            HrmBnd1 F  CT H2    50.0   109.50
            HrmBnd1 Cl CT CT    50.0   108.50
            HrmBnd1 Cl CT H1    50.0   108.50
            HrmBnd1 Br CT CT    50.0   108.00
            HrmBnd1 Br CT H1    50.0   106.50
            HrmBnd1 I  CT CT    50.0   106.00
            HrmBnd1 CT CC NA    70.0   120.00
            HrmBnd1 CT CC CV    70.0   120.00
            HrmBnd1 CT CC NB    70.0   120.00
            HrmBnd1 CV CC NA    70.0   120.00
            HrmBnd1 CW CC NA    70.0   120.00
            HrmBnd1 CW CC NB    70.0   120.00
            HrmBnd1 CT CC CW    70.0   120.00
            HrmBnd1 H5 CR NA    50.0   120.00
            HrmBnd1 H5 CR NB    50.0   120.00
            HrmBnd1 NA CR NA    70.0   120.00
            HrmBnd1 NA CR NB    70.0   120.00
            HrmBnd1 CC CV H4    50.0   120.00
            HrmBnd1 CC CV NB    70.0   120.00
            HrmBnd1 H4 CV NB    50.0   120.00
            HrmBnd1 CC CW H4    50.0   120.00
            HrmBnd1 CC CW NA    70.0   120.00
            HrmBnd1 C* CW H4    50.0   120.00
            HrmBnd1 C* CW NA    70.0   108.70
            HrmBnd1 H4 CW NA    50.0   120.00
            HrmBnd1 CB C* CT    70.0   128.60
            HrmBnd1 CB C* CW    63.0   106.40
            HrmBnd1 CT C* CW    70.0   125.00
            HrmBnd1 CA CN CB    63.0   122.70
            HrmBnd1 CA CN NA    70.0   132.80
            HrmBnd1 CB CN NA    70.0   104.40
            HrmBnd1 CT CY NY    80.0   180.00
            HrmBnd1 CT CZ CZ    80.0   180.00
            HrmBnd1 CZ CZ HZ    50.0   180.00
            HrmBnd1 C  N  CT    50.0   121.90
            HrmBnd1 C  N  CX    50.0   121.90
            HrmBnd1 C  N  H     50.0   120.00
            HrmBnd1 CT N  H     50.0   118.04
            HrmBnd1 CX N  H     50.0   118.04
            HrmBnd1 CT N  CT    50.0   118.00
            HrmBnd1 CT N  CX    50.0   118.00
            HrmBnd1 H  N  H     35.0   120.00
            HrmBnd1 C  N* CM    70.0   121.60
            HrmBnd1 C  N* CS    70.0   121.60
            HrmBnd1 C  N* CT    70.0   117.60
            HrmBnd1 C  N* H     50.0   119.20
            HrmBnd1 CB N* CK    70.0   105.40
            HrmBnd1 CB N* CP    70.0   105.40
            HrmBnd1 CB N* CT    70.0   125.80
            HrmBnd1 CB N* H     50.0   125.80
            HrmBnd1 CK N* CT    70.0   128.80
            HrmBnd1 CK N* H     50.0   128.80
            HrmBnd1 CP N* CT    70.0   128.80
            HrmBnd1 CP N* H     50.0   128.80
            HrmBnd1 CM N* CT    70.0   121.20
            HrmBnd1 CM N* H     50.0   121.20
            HrmBnd1 CS N* CT    70.0   121.20
            HrmBnd1 CS N* H     50.0   121.20
            HrmBnd1 CA N2 H     50.0   120.00
            HrmBnd1 CA N2 CT    50.0   123.20
            HrmBnd1 CT N2 H     50.0   118.40
            HrmBnd1 H  N2 H     35.0   120.00
            HrmBnd1 CT N3 H     50.0   109.50
            HrmBnd1 CX N3 H     50.0   109.50
            HrmBnd1 CT N3 CT    50.0   109.50
            HrmBnd1 CT N3 CX    50.0   109.50
            HrmBnd1 H  N3 H     35.0   109.50
            HrmBnd1 CT NT H     50.0   109.50
            HrmBnd1 CT NT CT    50.0   109.50
            HrmBnd1 H  NT H     35.0   109.50
            HrmBnd1 C  NA C     70.0   126.40
            HrmBnd1 C  NA CA    70.0   125.20
            HrmBnd1 C  NA H     50.0   116.80
            HrmBnd1 CA NA H     50.0   118.00
            HrmBnd1 CC NA CR    70.0   120.00
            HrmBnd1 CC NA H     50.0   120.00
            HrmBnd1 CR NA CW    70.0   120.00
            HrmBnd1 CR NA H     50.0   120.00
            HrmBnd1 CW NA H     50.0   120.00
            HrmBnd1 CN NA CW    70.0   111.60
            HrmBnd1 CN NA H     50.0   123.10
            HrmBnd1 CB NB CK    70.0   103.80
            HrmBnd1 CB NB CP    70.0   103.80
            HrmBnd1 CC NB CR    70.0   117.00
            HrmBnd1 CR NB CV    70.0   117.00
            HrmBnd1 C  NC CA    70.0   120.50
            HrmBnd1 CA NC CB    70.0   112.20
            HrmBnd1 CA NC CQ    70.0   118.60
            HrmBnd1 CB NC CQ    70.0   111.00
            HrmBnd1 C  OH HO    50.0   113.00
            HrmBnd1 CA OH HO    50.0   113.00
            HrmBnd1 CT OH HO    55.0   108.50
            HrmBnd1 HO OH P     45.0   108.50
            HrmBnd1 C  OS CT    60.0   117.00
            HrmBnd1 CM OS CT    60.0   117.00
            HrmBnd1 CS OS CT    60.0   117.00
            HrmBnd1 CT OS CT    60.0   109.50
            HrmBnd1 CT OS P    100.0   120.50
            HrmBnd1 C  OS P    100.0   120.50
            HrmBnd1 P  OS P    100.0   120.50
            HrmBnd1 O2 P  OH    45.0   108.23
            HrmBnd1 O2 P  O2   140.0   119.90
            HrmBnd1 OP P  OP   140.0   119.90
            HrmBnd1 OP P  OS   100.0   108.23
            HrmBnd1 O2 P  OS   100.0   108.23
            HrmBnd1 OH P  OS    45.0   102.60
            HrmBnd1 OS P  OS    45.0   102.60
            HrmBnd1 CT S  CT    62.0    98.90
            HrmBnd1 CT S  S     68.0   103.70
            HrmBnd1 CT SH HS    43.0    96.00
            HrmBnd1 HS SH HS    35.0    92.07
            HrmBnd1 CB NB EP   150.0   126.00
            HrmBnd1 CC NB EP   150.0   126.00
            HrmBnd1 CK NB EP   150.0   126.00
            HrmBnd1 CP NB EP   150.0   126.00
            HrmBnd1 CR NB EP   150.0   126.00
            HrmBnd1 CV NB EP   150.0   126.00
            HrmBnd1 C  NC EP   150.0   120.00
            HrmBnd1 CA NC EP   150.0   120.00
            HrmBnd1 CB NC EP   150.0   120.00
            HrmBnd1 CQ NC EP   150.0   120.00
            HrmBnd1 CT N3 EP   150.0   109.50
            HrmBnd1 H  N3 EP   150.0   109.50
            HrmBnd1 CT NT EP   150.0   109.50
            HrmBnd1 H  NT EP   150.0   109.50
            HrmBnd1 C  O  EP   150.0   120.00
            HrmBnd1 EP O  EP   150.0   120.00
            HrmBnd1 C  OH EP   150.0   120.00
            HrmBnd1 CT OH EP   150.0   109.50
            HrmBnd1 HO OH EP   150.0   109.50
            HrmBnd1 EP OH EP   150.0   109.50
            HrmBnd1 C  OS EP   150.0   109.50
            HrmBnd1 CM OS EP   150.0   109.50
            HrmBnd1 CS OS EP   150.0   109.50
            HrmBnd1 CT OS EP   150.0   109.50
            HrmBnd1 EP OS EP   150.0   109.50
            HrmBnd1 CT S  EP   150.0    90.00
            HrmBnd1 CT SH EP   150.0    90.00
            HrmBnd1 P  OS EP   150.0   109.50
            HrmBnd1 EP S  EP   150.0   180.00
            HrmBnd1 EP SH EP   150.0   180.00
            HrmBnd1 HS SH EP   150.0    90.00
            HrmBnd1 H1 CI CT    50.0   109.50
            HrmBnd1 H1 CI H1    35.0   109.50
            HrmBnd1 CI CT H1    50.0   109.50
            HrmBnd1 CI CT OS    50.0   109.50
            HrmBnd1 CI CT CT    40.0   109.50
            HrmBnd1 OS CI H1    50.0   109.50
            HrmBnd1 OS CI CT    50.0   109.50
            HrmBnd1 P  OS CI   100.0   120.50
            HrmBnd1 OH CI H1    50.0   109.50
            HrmBnd1 OH CI CT    50.0   109.50
            HrmBnd1 HO OH CI    55.0   108.50
            HrmBnd1 H5 C5 N*    50.0   123.05
            HrmBnd1 H5 C5 NB    50.0   123.05
            HrmBnd1 N* C5 NB    70.0   113.90
            HrmBnd1 CB N* C5    70.0   105.40
            HrmBnd1 C5 N* CT    70.0   128.80
            HrmBnd1 CB NB C5    70.0   103.80
            HrmBnd1 C4 C  NA    70.0   114.10
            HrmBnd1 C4 C  O     80.0   125.30
            HrmBnd1 C4 CA N2    70.0   120.10
            HrmBnd1 C4 CA NC    70.0   121.50
            HrmBnd1 C  C4 C4    63.0   120.70
            HrmBnd1 C  C4 CT    70.0   119.70
            HrmBnd1 C  C4 HA    50.0   119.70
            HrmBnd1 C  C4 H4    50.0   119.70
            HrmBnd1 CA C4 C4    63.0   117.00
            HrmBnd1 CA C4 HA    50.0   123.30
            HrmBnd1 CA C4 H4    50.0   123.30
            HrmBnd1 C4 C4 CT    70.0   119.70
            HrmBnd1 C4 C4 HA    50.0   119.70
            HrmBnd1 C4 C4 H4    50.0   119.70
            HrmBnd1 C4 C4 N*    70.0   121.20
            HrmBnd1 H4 C4 N*    50.0   119.10
            HrmBnd1 H1 CT C4    50.0   109.50
            HrmBnd1 HC CT C4    50.0   109.50
            HrmBnd1 C  N* C4    70.0   121.60
            HrmBnd1 C4 N* CT    70.0   121.20
            HrmBnd1 EP S  S    150.0    96.70
            HrmBnd1 C8 C8 C8    40.0   109.50
            HrmBnd1 C8 C8 CX    40.0   109.50
            HrmBnd1 C8 C8 H1    50.0   109.50
            HrmBnd1 C8 C8 HC    50.0   109.50
            HrmBnd1 C8 C8 HP    50.0   109.50
            HrmBnd1 C8 C8 N2    80.0   111.20
            HrmBnd1 C8 C8 N3    80.0   111.20
            HrmBnd1 CX C8 HC    50.0   109.50
            HrmBnd1 H1 C8 H1    35.0   109.50
            HrmBnd1 H1 C8 N2    50.0   109.50
            HrmBnd1 HC C8 HC    35.0   109.50
            HrmBnd1 HP C8 HP    35.0   109.50
            HrmBnd1 HP C8 N3    50.0   109.50
            HrmBnd1 O2 CO O2    80.0   126.00
            HrmBnd1 C  CX C8    63.0   111.10
            HrmBnd1 C8 CX H1    50.0   109.50
            HrmBnd1 C8 CX N     80.0   109.70
            HrmBnd1 C8 CX N3    80.0   111.20
            HrmBnd1 HP CX C8    50.0   109.50
            HrmBnd1 C8 N2 CA    50.0   123.20
            HrmBnd1 C8 N2 H     50.0   118.40
            HrmBnd1 C8 N3 H     50.0   109.50
            !
            ! Torsions
            !
            AmbTrs *  C  C  *    0 180   0   0  0.000 14.500  0.000  0.000 4.0
            AmbTrs *  C  CA *    0 180   0   0  0.000 14.500  0.000  0.000 4.0
            AmbTrs *  C  CB *    0 180   0   0  0.000 12.000  0.000  0.000 4.0
            AmbTrs *  C  CM *    0 180   0   0  0.000  8.700  0.000  0.000 4.0
            AmbTrs *  C  CS *    0 180   0   0  0.000  8.700  0.000  0.000 4.0
            AmbTrs *  C  CT *    0   0   0   0  0.000  0.000  0.000  0.000 6.0
            AmbTrs *  C  CX *    0   0   0   0  0.000  0.000  0.000  0.000 6.0
            AmbTrs *  C  N  *    0 180   0   0  0.000 10.000  0.000  0.000 4.0
            AmbTrs *  C  N* *    0 180   0   0  0.000  5.800  0.000  0.000 4.0
            AmbTrs *  C  NA *    0 180   0   0  0.000  5.400  0.000  0.000 4.0
            AmbTrs *  C  NC *    0 180   0   0  0.000  8.000  0.000  0.000 2.0
            AmbTrs *  C  O  *    0 180   0   0  0.000 11.200  0.000  0.000 4.0
            AmbTrs *  C  OH *    0 180   0   0  0.000  4.600  0.000  0.000 2.0
            AmbTrs *  C  OS *    0 180   0   0  0.000  5.400  0.000  0.000 2.0
            AmbTrs *  CA CA *    0 180   0   0  0.000 14.500  0.000  0.000 4.0
            AmbTrs *  CA CB *    0 180   0   0  0.000 14.000  0.000  0.000 4.0
            AmbTrs *  CA CM *    0 180   0   0  0.000 10.200  0.000  0.000 4.0
            AmbTrs *  CA CS *    0 180   0   0  0.000 10.200  0.000  0.000 4.0
            AmbTrs *  CA CN *    0 180   0   0  0.000 14.500  0.000  0.000 4.0
            AmbTrs *  CA CT *    0   0   0   0  0.000  0.000  0.000  0.000 6.0
            AmbTrs *  CA N2 *    0 180   0   0  0.000  9.600  0.000  0.000 4.0
            AmbTrs *  CA NA *    0 180   0   0  0.000  6.000  0.000  0.000 4.0
            AmbTrs *  CA NC *    0 180   0   0  0.000  9.600  0.000  0.000 2.0
            AmbTrs *  CA OH *    0 180   0   0  0.000  1.800  0.000  0.000 2.0
            AmbTrs *  CB CB *    0 180   0   0  0.000 21.800  0.000  0.000 4.0
            AmbTrs *  CB CN *    0 180   0   0  0.000 12.000  0.000  0.000 4.0
            AmbTrs *  CB N* *    0 180   0   0  0.000  6.600  0.000  0.000 4.0
            AmbTrs *  CB NB *    0 180   0   0  0.000  5.100  0.000  0.000 2.0
            AmbTrs *  CB NC *    0 180   0   0  0.000  8.300  0.000  0.000 2.0
            AmbTrs *  CC CT *    0   0   0   0  0.000  0.000  0.000  0.000 6.0
            AmbTrs *  CC CV *    0 180   0   0  0.000 20.600  0.000  0.000 4.0
            AmbTrs *  CC CW *    0 180   0   0  0.000 21.500  0.000  0.000 4.0
            AmbTrs *  CC NA *    0 180   0   0  0.000  5.600  0.000  0.000 4.0
            AmbTrs *  CC NB *    0 180   0   0  0.000  4.800  0.000  0.000 2.0
            AmbTrs *  CD CD *    0 180   0   0  0.000  4.000  0.000  0.000 4.0
            AmbTrs *  CD CT *    0   0   0   0  0.000  0.000  0.000  0.000 6.0
            AmbTrs *  CD CM *    0 180   0   0  0.000 26.600  0.000  0.000 4.0
            AmbTrs *  CD CS *    0 180   0   0  0.000 26.600  0.000  0.000 4.0
            AmbTrs *  CK N* *    0 180   0   0  0.000  6.800  0.000  0.000 4.0
            AmbTrs *  CK NB *    0 180   0   0  0.000 20.000  0.000  0.000 2.0
            AmbTrs *  CP N* *    0 180   0   0  0.000  6.800  0.000  0.000 4.0
            AmbTrs *  CP NB *    0 180   0   0  0.000 20.000  0.000  0.000 2.0
            AmbTrs *  CM CM *    0 180   0   0  0.000 26.600  0.000  0.000 4.0
            AmbTrs *  CM CT *    0   0   0   0  0.000  0.000  0.000  0.000 6.0
            AmbTrs *  CM N* *    0 180   0   0  0.000  7.400  0.000  0.000 4.0
            AmbTrs *  CM OS *    0 180   0   0  0.000  2.100  0.000  0.000 2.0
            AmbTrs *  CS CS *    0 180   0   0  0.000 26.600  0.000  0.000 4.0
            AmbTrs *  CS CT *    0   0   0   0  0.000  0.000  0.000  0.000 6.0
            AmbTrs *  CS N* *    0 180   0   0  0.000  7.400  0.000  0.000 4.0
            AmbTrs *  CS OS *    0 180   0   0  0.000  2.100  0.000  0.000 2.0
            AmbTrs *  CN NA *    0 180   0   0  0.000  6.100  0.000  0.000 4.0
            AmbTrs *  CQ NC *    0 180   0   0  0.000 13.600  0.000  0.000 2.0
            AmbTrs *  CT CT *    0   0   0   0  0.000  0.000  1.400  0.000 9.0
            AmbTrs *  CT CX *    0   0   0   0  0.000  0.000  1.400  0.000 9.0
            AmbTrs *  CT CY *    0   0   0   0  0.000  0.000  0.000  0.000 3.0
            AmbTrs *  CT CZ *    0   0   0   0  0.000  0.000  0.000  0.000 3.0
            AmbTrs *  CT N  *    0   0   0   0  0.000  0.000  0.000  0.000 6.0
            AmbTrs *  CX N  *    0   0   0   0  0.000  0.000  0.000  0.000 6.0
            AmbTrs *  CT N* *    0   0   0   0  0.000  0.000  0.000  0.000 6.0
            AmbTrs *  CT N2 *    0   0   0   0  0.000  0.000  0.000  0.000 6.0
            AmbTrs *  CT NT *    0   0   0   0  0.000  0.000  1.800  0.000 6.0
            AmbTrs *  CT N3 *    0   0   0   0  0.000  0.000  1.400  0.000 9.0
            AmbTrs *  CX N3 *    0   0   0   0  0.000  0.000  1.400  0.000 9.0
            AmbTrs *  CT OH *    0   0   0   0  0.000  0.000  0.500  0.000 3.0
            AmbTrs *  CT OS *    0   0   0   0  0.000  0.000  1.150  0.000 3.0
            AmbTrs *  CT S  *    0   0   0   0  0.000  0.000  1.000  0.000 3.0
            AmbTrs *  CT SH *    0   0   0   0  0.000  0.000  0.750  0.000 3.0
            AmbTrs *  C* CB *    0 180   0   0  0.000  6.700  0.000  0.000 4.0
            AmbTrs *  C* CT *    0   0   0   0  0.000  0.000  0.000  0.000 6.0
            AmbTrs *  C* CW *    0 180   0   0  0.000 26.100  0.000  0.000 4.0
            AmbTrs *  CR NA *    0 180   0   0  0.000  9.300  0.000  0.000 4.0
            AmbTrs *  CR NB *    0 180   0   0  0.000 10.000  0.000  0.000 2.0
            AmbTrs *  CV NB *    0 180   0   0  0.000  4.800  0.000  0.000 2.0
            AmbTrs *  CW NA *    0 180   0   0  0.000  6.000  0.000  0.000 4.0
            AmbTrs *  OH P  *    0   0   0   0  0.000  0.000  0.750  0.000 3.0
            AmbTrs *  OS P  *    0   0   0   0  0.000  0.000  0.750  0.000 3.0
            AmbTrs *  CI OS *    0   0   0   0  0.000  0.000  1.150  0.000 3.0
            AmbTrs *  CI OH *    0   0   0   0  0.000  0.000  0.500  0.000 3.0
            AmbTrs *  CI CT *    0   0   0   0  0.000  0.000  1.400  0.000 9.0
            AmbTrs *  C5 N* *    0 180   0   0  0.000  6.800  0.000  0.000 4.0
            AmbTrs *  C5 NB *    0 180   0   0  0.000 20.000  0.000  0.000 2.0
            AmbTrs *  C  C4 *    0 180   0   0  0.000  8.700  0.000  0.000 4.0
            AmbTrs *  CA C4 *    0 180   0   0  0.000 10.200  0.000  0.000 4.0
            AmbTrs *  C4 C4 *    0 180   0   0  0.000 26.600  0.000  0.000 4.0
            AmbTrs *  C4 CT *    0   0   0   0  0.000  0.000  0.000  0.000 6.0
            AmbTrs *  C4 N* *    0 180   0   0  0.000  7.400  0.000  0.000 4.0
            AmbTrs CT OS CT CI   0 180   0   0  0.000  0.100  0.383  0.000 1.0
            AmbTrs H1 CI CT OS   0   0   0   0  0.250  0.000  0.000  0.000 1.0
            AmbTrs H1 CI CT OH   0   0   0   0  0.250  0.000  0.000  0.000 1.0
            AmbTrs H1 CT CI OS   0   0   0   0  0.250  0.000  0.000  0.000 1.0
            AmbTrs H1 CT CI OH   0   0   0   0  0.250  0.000  0.000  0.000 1.0
            AmbTrs CI CT CT CT 180 180   0   0  0.200  0.250  0.180  0.000 1.0
            AmbTrs OP P  OS CA 180   0 180   0  0.000  0.000  0.000  0.000 1.0
            AmbTrs CC NA P  OP   0   0   0   0  0.000  0.000  0.240  0.000 1.0
            AmbTrs CR NA P  OP   0   0   0   0  0.000  0.000  0.000  0.000 1.0
            AmbTrs OS P  OS CI  31 351 357   0  0.185  1.257  0.355  0.000 1.0
            AmbTrs OH P  OS CI  31 351 357   0  0.185  1.257  0.355  0.000 1.0
            AmbTrs CT CT CI OS 190 295 348   0  1.178  0.092  0.963  0.000 1.0
            AmbTrs CT CT CI OH 190 295 348   0  1.178  0.092  0.963  0.000 1.0
            AmbTrs HC CT C4 C4   0   0 180   0  1.150  0.000  0.380  0.000 1.0
            AmbTrs C4 C4 C  O    0 180   0   0  0.000  2.175  0.300  0.000 1.0
            AmbTrs OS CT N* C5  68  15 171  19  0.966  1.074  0.458  0.309 1.0
            AmbTrs OS CT N* CP  74   6 168   3  0.705  1.065  0.443  0.256 1.0
            AmbTrs OS CT N* C4 146  16 185  32  1.225  1.635  0.937  0.310 1.0
            AmbTrs OS CT N* CS 149  16 179  16  1.025  1.749  0.581  0.351 1.0
            AmbTrs C  N  CX C    0   0   0   0  0.000  0.270  0.420  0.000 1.0
            AmbTrs N  CX C  N  180 180 180   0  0.450  1.580  0.550  0.000 1.0
            AmbTrs CT CT N  C    0   0   0   0  2.000  2.000  0.400  0.000 1.0
            AmbTrs CT CT C  N    0   0   0   0  0.200  0.200  0.400  0.000 1.0
            AmbTrs CT CX C  N    0   0   0   0  0.200  0.200  0.400  0.000 1.0
            AmbTrs CX CT C  N    0   0   0   0  0.200  0.200  0.400  0.000 1.0
            AmbTrs H  N  C  O    0 180   0   0  2.000  2.500  0.000  0.000 1.0
            AmbTrs CT S  S  CT   0   0   0   0  0.000  3.500  0.600  0.000 1.0
            AmbTrs OH P  OS CT   0   0   0   0  0.000  1.200  0.250  0.000 1.0
            AmbTrs OS P  OS CT   0   0   0   0  0.000  1.200  0.250  0.000 1.0
            AmbTrs H1 CT C  O    0   0 180   0  0.800  0.000  0.080  0.000 1.0
            AmbTrs H1 CX C  O    0   0 180   0  0.800  0.000  0.080  0.000 1.0
            AmbTrs HC CT C  O    0   0 180   0  0.800  0.000  0.080  0.000 1.0
            AmbTrs HC CT CT HC   0   0   0   0  0.000  0.000  0.150  0.000 1.0
            AmbTrs HC CT CT CT   0   0   0   0  0.000  0.000  0.160  0.000 1.0
            AmbTrs HC CT CT CX   0   0   0   0  0.000  0.000  0.160  0.000 1.0
            AmbTrs HC CT CM CM   0   0 180   0  1.150  0.000  0.380  0.000 1.0
            AmbTrs HC CT CS CS   0   0 180   0  1.150  0.000  0.380  0.000 1.0
            AmbTrs HO OH CT CT   0   0   0   0  0.250  0.000  0.160  0.000 1.0
            AmbTrs HO OH CT CX   0   0   0   0  0.250  0.000  0.160  0.000 1.0
            AmbTrs HO OH C  O    0 180   0   0  1.900  2.300  0.000  0.000 1.0
            AmbTrs CM CM C  O    0 180   0   0  0.000  2.175  0.300  0.000 1.0
            AmbTrs CT CM CM CT 180 180   0   0  1.900  6.650  0.000  0.000 1.0
            AmbTrs CS CS C  O    0 180   0   0  0.000  2.175  0.300  0.000 1.0
            AmbTrs CT CS CS CT 180 180   0   0  1.900  6.650  0.000  0.000 1.0
            AmbTrs CT CT CT CT 180 180   0   0  0.200  0.250  0.180  0.000 1.0
            AmbTrs CX CT CT CT 180 180   0   0  0.200  0.250  0.180  0.000 1.0
            AmbTrs CT CT NT CT   0 180   0   0  0.000  0.480  0.300  0.000 1.0
            AmbTrs CT CT OS CT   0 180   0   0  0.000  0.100  0.383  0.000 1.0
            AmbTrs CT CT OS C  180   0   0   0  0.800  0.000  0.383  0.000 1.0
            AmbTrs CT OS CT OS 180 180   0   0  1.350  0.850  0.100  0.000 1.0
            AmbTrs CT OS CT N*   0   0   0   0  0.000  0.650  0.383  0.000 1.0
            AmbTrs CT CZ CZ HZ   0   0   0   0  0.000  0.000  0.000  0.000 1.0
            AmbTrs O  C  OS CT 180 180   0   0  1.400  2.700  0.000  0.000 1.0
            AmbTrs OS CT N* CK   0   0   0   0  2.500  0.000  0.000  0.000 1.0
            AmbTrs OS CT N* CM   0   0   0   0  2.500  0.000  0.000  0.000 1.0
            AmbTrs OS CT CT OS   0   0   0   0  0.000  1.175  0.144  0.000 1.0
            AmbTrs OS CT CT OH   0   0   0   0  0.000  1.175  0.144  0.000 1.0
            AmbTrs OH CT CT OH   0   0   0   0  0.000  1.175  0.144  0.000 1.0
            AmbTrs F  CT CT F  180   0   0   0  1.200  0.000  0.000  0.000 1.0
            AmbTrs Cl CT CT Cl 180   0   0   0  0.450  0.000  0.000  0.000 1.0
            AmbTrs Br CT CT Br 180   0   0   0  0.000  0.000  0.000  0.000 1.0
            AmbTrs H1 CT CT OS   0   0   0   0  0.250  0.000  0.000  0.000 1.0
            AmbTrs H1 CT CT OH   0   0   0   0  0.250  0.000  0.000  0.000 1.0
            AmbTrs H1 CX CT OH   0   0   0   0  0.250  0.000  0.000  0.000 1.0
            AmbTrs H1 CT CT F    0   0   0   0  0.190  0.000  0.000  0.000 1.0
            AmbTrs H1 CT CT Cl   0   0   0   0  0.250  0.000  0.000  0.000 1.0
            AmbTrs H1 CT CT Br   0   0   0   0  0.550  0.000  0.000  0.000 1.0
            AmbTrs HC CT CT OS   0   0   0   0  0.250  0.000  0.000  0.000 1.0
            AmbTrs HC CT CT OH   0   0   0   0  0.250  0.000  0.000  0.000 1.0
            AmbTrs HC CT CT F    0   0   0   0  0.190  0.000  0.000  0.000 1.0
            AmbTrs HC CT CT Cl   0   0   0   0  0.250  0.000  0.000  0.000 1.0
            AmbTrs HC CT CT Br   0   0   0   0  0.550  0.000  0.000  0.000 1.0
            AmbTrs H1 CT NT EP   0   0   0   0  0.000  0.000  0.000  0.000 1.0
            AmbTrs CT CT NT EP   0   0   0   0  0.000  0.000  0.000  0.000 1.0
            AmbTrs CT C  N  EP   0 180   0   0  0.000  0.000  0.000  0.000 1.0
            AmbTrs O  C  N  EP   0 180   0   0  0.000  0.000  0.000  0.000 1.0
            AmbTrs H1 CT OH EP   0   0   0   0  0.000  0.000  0.000  0.000 1.0
            AmbTrs CT CT OH EP   0   0   0   0  0.000  0.000  0.000  0.000 1.0
            AmbTrs H1 CT OS EP   0   0   0   0  0.000  0.000  0.000  0.000 1.0
            AmbTrs H2 CT OS EP   0   0   0   0  0.000  0.000  0.000  0.000 1.0
            AmbTrs CT CT OS EP   0   0   0   0  0.000  0.000  0.000  0.000 1.0
            AmbTrs CM CM OS EP   0 180   0   0  0.000  0.000  0.000  0.000 1.0
            AmbTrs HA CM OS EP   0 180   0   0  0.000  0.000  0.000  0.000 1.0
            AmbTrs H4 CM OS EP   0 180   0   0  0.000  0.000  0.000  0.000 1.0
            AmbTrs CS CS OS EP   0 180   0   0  0.000  0.000  0.000  0.000 1.0
            AmbTrs HA CS OS EP   0 180   0   0  0.000  0.000  0.000  0.000 1.0
            AmbTrs H4 CS OS EP   0 180   0   0  0.000  0.000  0.000  0.000 1.0
            AmbTrs N  CT CT OH   0   0   0   0  0.000  1.490  0.156  0.000 1.0
            AmbTrs EP S  S  CT   0   0   0   0  0.000  0.000  0.000  0.000 1.0
            AmbTrs EP S  S  EP   0   0   0   0  0.000  0.000  0.000  0.000 1.0
            AmbTrs C8 CX N  C    0   0   0   0  2.000  1.800  0.800  0.000 1.0
            AmbTrs CT CX N  C    0   0   0   0  2.000  1.800  0.800  0.000 1.0
            AmbTrs N  C  CX C8   0   0   0   0  0.200  0.200  0.400  0.000 1.0
            AmbTrs N  C  CX CT   0   0   0   0  0.200  0.200  0.400  0.000 1.0
            AmbTrs *  C8 C8 *    0   0   0   0  0.000  0.000  1.400  0.000 9.0
            AmbTrs C8 C8 C8 HC   0   0   0   0  0.000  0.000  0.160  0.000 1.0
            AmbTrs CX C8 C8 HC   0   0   0   0  0.000  0.000  0.160  0.000 1.0
            AmbTrs HC C8 C8 HC   0   0   0   0  0.000  0.000  0.150  0.000 1.0
            AmbTrs *  C8 CX *    0   0   0   0  0.000  0.000  1.400  0.000 9.0
            AmbTrs *  C8 N2 *    0   0   0   0  0.000  0.000  0.000  0.000 6.0
            AmbTrs *  C8 N3 *    0   0   0   0  0.000  0.000  1.400  0.000 9.0
            AmbTrs C  CX C8 C8   0   0   0   0  0.000  0.000  1.400  0.000 9.0
            AmbTrs N  CX C8 C8   0   0   0   0  0.000  0.000  1.400  0.000 9.0
            AmbTrs N3 CX C8 C8   0   0   0   0  0.000  0.000  1.400  0.000 9.0
            AmbTrs CX C8 C8 C8 180 180   0   0  0.200  0.250  0.180  0.000 1.0
            AmbTrs C8 C8 C8 N2   0   0   0   0  0.000  0.000  1.400  0.000 9.0
            AmbTrs C8 C8 N2 CA   0   0   0   0  0.000  0.000  0.000  0.000 1.0
            AmbTrs C8 C8 C8 C8 180 180   0   0  0.200  0.250  0.180  0.000 1.0
            AmbTrs C8 C8 C8 N3   0   0   0   0  0.000  0.000  1.400  0.000 9.0
            AmbTrs C8 N2 CA N2   0 180   0   0  0.000  2.400  0.000  0.000 1.0
            AmbTrs H  N2 CA N2   0 180   0   0  0.000  2.400  0.000  0.000 1.0
            AmbTrs C8 C8 N3 H    0   0   0   0  0.000  0.000  1.400  0.000 9.0
            AmbTrs C  CX CT CC 180 180   0   0  0.143  0.244  0.219  0.025 1.0
            AmbTrs N  CX CT CC 180 180   0   0  0.306  0.221  0.219  0.089 1.0
            AmbTrs N3 CX CT CC 180 180   0   0  0.306  0.221  0.219  0.089 1.0
            AmbTrs CX CT CC NA 180 180   0 180  0.160  0.392  0.686  0.037 1.0
            AmbTrs CX CT CC CV 180   0 180 180  0.674  0.750  0.122  0.010 1.0
            AmbTrs CX CT CC NB   0   0   0 180  0.690  0.204  0.740  0.047 1.0
            AmbTrs C  CX CT C* 180 180   0   0  0.017  0.353  0.234  0.074 1.0
            AmbTrs N  CX CT C*   0 180   0   0  0.079  0.313  0.234  0.031 1.0
            AmbTrs N3 CX CT C*   0 180   0   0  0.079  0.313  0.234  0.031 1.0
            AmbTrs CX CT C* CB   0   0   0 180  0.365  0.408  0.819  0.095 1.0
            AmbTrs CX CT C* CW   0   0   0   0  0.000  0.000  0.000  0.000 1.0
            AmbTrs C  CX CT CA   0 180   0 180  0.055  0.469  0.192  0.012 1.0
            AmbTrs N  CX CT CA 180 180   0 180  0.012  0.290  0.192  0.007 1.0
            AmbTrs N3 CX CT CA 180 180   0 180  0.012  0.290  0.192  0.007 1.0
            AmbTrs CX CT CA CA   0 180   0 180  0.000  0.069  0.000  0.048 1.0
            AmbTrs CA C  OH HO   0 180   0   0  0.000  0.883  0.000  0.065 1.0
            !
            ! Improper torsions
            !
            ImpTrs *  *  C  O   10.5  180.0 2.0
            ImpTrs *  O2 C  O2  10.5  180.0 2.0
            ImpTrs *  *  N  H    1.0  180.0 2.0
            ImpTrs *  *  N2 H    1.0  180.0 2.0
            ImpTrs *  *  NA H    1.0  180.0 2.0
            ImpTrs *  N2 CA N2  10.5  180.0 2.0
            ImpTrs *  CT N  CT   1.0  180.0 2.0
            ImpTrs *  CT N  CX   1.0  180.0 2.0
            ImpTrs *  *  CA HA   1.1  180.0 2.0
            ImpTrs *  *  CW H4   1.1  180.0 2.0
            ImpTrs *  *  CR H5   1.1  180.0 2.0
            ImpTrs *  *  CV H4   1.1  180.0 2.0
            ImpTrs *  *  CQ H5   1.1  180.0 2.0
            ImpTrs *  *  CK H5   1.1  180.0 2.0
            ImpTrs *  *  CP H5   1.1  180.0 2.0
            ImpTrs *  *  CM H4   1.1  180.0 2.0
            ImpTrs *  *  CM HA   1.1  180.0 2.0
            ImpTrs *  *  CS H4   1.1  180.0 2.0
            ImpTrs *  *  CS HA   1.1  180.0 2.0
            ImpTrs *  *  CA H4   1.1  180.0 2.0
            ImpTrs *  *  CA H5   1.1  180.0 2.0
            ImpTrs CB CK N* CT   1.0  180.0 2.0
            ImpTrs CB CP N* CT   1.0  180.0 2.0
            ImpTrs C  CM N* CT   1.0  180.0 2.0
            ImpTrs C  CS N* CT   1.0  180.0 2.0
            ImpTrs C  CS CM CT   1.1  180.0 2.0
            ImpTrs CT O  C  OH  10.5  180.0 2.0
            ImpTrs CT CV CC NA   1.1  180.0 2.0
            ImpTrs CT CW CC NB   1.1  180.0 2.0
            ImpTrs CT CW CC NA   1.1  180.0 2.0
            ImpTrs CB CT C* CW   1.1  180.0 2.0
            ImpTrs CA CA CA CT   1.1  180.0 2.0
            ImpTrs C  CM CM CT   1.1  180.0 2.0
            ImpTrs C  CS CS CT   1.1  180.0 2.0
            ImpTrs CM N2 CA NC   1.1  180.0 2.0
            ImpTrs CS N2 CA NC   1.1  180.0 2.0
            ImpTrs CB N2 CA NC   1.1  180.0 2.0
            ImpTrs N2 NA CA NC   1.1  180.0 2.0
            ImpTrs CA CA C  OH   1.1  180.0 2.0
            ImpTrs CA CA CA OH   1.1  180.0 2.0
            ImpTrs H5 O  C  OH   1.1  180.0 2.0
            ImpTrs H5 O  C  OS   1.1  180.0 2.0
            ImpTrs CM CT CM HA   1.1  180.0 2.0
            ImpTrs CS CT CS HA   1.1  180.0 2.0
            ImpTrs Br CA CA CA   1.1  180.0 2.0
            ImpTrs CM H4 C  O    1.1  180.0 2.0
            ImpTrs CS H4 C  O    1.1  180.0 2.0
            ImpTrs C  CT N  H    1.1  180.0 2.0
            ImpTrs C  CX N  H    1.1  180.0 2.0
            ImpTrs C  CT N  O    1.1  180.0 2.0
            ImpTrs *  *  C5 H5   1.1  180.0 2.0
            ImpTrs CB C5 N* CT   1.0  180.0 2.0
            ImpTrs *  *  C4 H4   1.1  180.0 2.0
            ImpTrs *  *  C4 HA   1.1  180.0 2.0
            ImpTrs C  C4 N* CT   1.0  180.0 2.0
            ImpTrs C  C4 C4 CT   1.1  180.0 2.0
            ImpTrs C4 N2 CA NC   1.1  180.0 2.0
            ImpTrs CA CA C  OS   1.1  180.0 2.0
            ImpTrs CR CC NA P    1.1  180.0 2.0
            ImpTrs *  O2 CO O2  10.5  180.0 2.0
            !
            ! Vanderwaals parameters
            !
            VDW H  0.6000  0.0157
            VDW HO 0.0000  0.0000
            VDW HS 0.6000  0.0157
            VDW HC 1.4870  0.0157
            VDW H1 1.3870  0.0157
            VDW H2 1.2870  0.0157
            VDW H3 1.1870  0.0157
            VDW HP 1.1000  0.0157
            VDW HA 1.4590  0.0150
            VDW H4 1.4090  0.0150
            VDW H5 1.3590  0.0150
            VDW HW 0.0000  0.0000
            VDW HZ 1.4590  0.0150
            VDW O  1.6612  0.2100
            VDW O2 1.6612  0.2100
            VDW OW 1.7683  0.1520
            VDW OH 1.7210  0.2104
            VDW OS 1.6837  0.1700
            VDW OP 1.8500  0.1700
            VDW C* 1.9080  0.0860
            VDW CB 1.9080  0.0860
            VDW CC 1.9080  0.0860
            VDW CD 1.9080  0.0860
            VDW CK 1.9080  0.0860
            VDW CM 1.9080  0.0860
            VDW CN 1.9080  0.0860
            VDW CQ 1.9080  0.0860
            VDW CR 1.9080  0.0860
            VDW CV 1.9080  0.0860
            VDW CW 1.9080  0.0860
            VDW CY 1.9080  0.0860
            VDW CZ 1.9080  0.0860
            VDW CP 1.9080  0.0860
            VDW CS 1.9080  0.0860
            VDW CI 1.9080  0.1094
            VDW C5 1.9080  0.0860
            VDW C4 1.9080  0.0860
            VDW CT 1.9080  0.1094
            VDW CX 1.9080  0.1094
            VDW C  1.9080  0.0860
            VDW N  1.8240  0.1700
            VDW NA 1.8240  0.1700
            VDW N2 1.8240  0.1700
            VDW N* 1.8240  0.1700
            VDW NC 1.8240  0.1700
            VDW NB 1.8240  0.1700
            VDW NT 1.8240  0.1700
            VDW NY 1.8240  0.1700
            VDW N3 1.8240  0.1700
            VDW S  2.0000  0.2500
            VDW SH 2.0000  0.2500
            VDW P  2.1000  0.2000
            VDW MG 0.7926  0.8947
            VDW C0 1.7131  0.459789
            VDW Zn 1.10    0.0125
            VDW F  1.75    0.061
            VDW Cl 1.948   0.265
            VDW Br 2.22    0.320
            VDW I  2.35    0.40
            VDW EP 0.00    0.0000
            VDW C8 1.9080  0.1094
            VDW CO 1.9080  0.0860
 Initial command:
 /share/apps/gaussian//g16/l1.exe "/tmp/123962.mgr/Gau-426561.inp" -scrdir="/tmp/123962.mgr/"
 Entering Link 1 = /share/apps/gaussian//g16/l1.exe PID=    426562.
  
 Copyright (c) 1988-2017, Gaussian, Inc.  All Rights Reserved.
  
 This is part of the Gaussian(R) 16 program.  It is based on
 the Gaussian(R) 09 system (copyright 2009, Gaussian, Inc.),
 the Gaussian(R) 03 system (copyright 2003, Gaussian, Inc.),
 the Gaussian(R) 98 system (copyright 1998, Gaussian, Inc.),
 the Gaussian(R) 94 system (copyright 1995, Gaussian, Inc.),
 the Gaussian 92(TM) system (copyright 1992, Gaussian, Inc.),
 the Gaussian 90(TM) system (copyright 1990, Gaussian, Inc.),
 the Gaussian 88(TM) system (copyright 1988, Gaussian, Inc.),
 the Gaussian 86(TM) system (copyright 1986, Carnegie Mellon
 University), and the Gaussian 82(TM) system (copyright 1983,
 Carnegie Mellon University). Gaussian is a federally registered
 trademark of Gaussian, Inc.
  
 This software contains proprietary and confidential information,
 including trade secrets, belonging to Gaussian, Inc.
  
 This software is provided under written license and may be
 used, copied, transmitted, or stored only in accord with that
 written license.
  
 The following legend is applicable only to US Government
 contracts under FAR:
  
                    RESTRICTED RIGHTS LEGEND
  
 Use, reproduction and disclosure by the US Government is
 subject to restrictions as set forth in subparagraphs (a)
 and (c) of the Commercial Computer Software - Restricted
 Rights clause in FAR 52.227-19.
  
 Gaussian, Inc.
 340 Quinnipiac St., Bldg. 40, Wallingford CT 06492
  
  
 ---------------------------------------------------------------
 Warning -- This program may not be used in any manner that
 competes with the business of Gaussian, Inc. or will provide
 assistance to any competitor of Gaussian, Inc.  The licensee
 of this program is prohibited from giving any competitor of
 Gaussian, Inc. access to this program.  By using this program,
 the user acknowledges that Gaussian, Inc. is engaged in the
 business of creating and licensing software in the field of
 computational chemistry and represents and warrants to the
 licensee that it is not a competitor of Gaussian, Inc. and that
 it will not use this program in any manner prohibited above.
 ---------------------------------------------------------------
  

 Cite this work as:
 Gaussian 16, Revision B.01,
 M. J. Frisch, G. W. Trucks, H. B. Schlegel, G. E. Scuseria, 
 M. A. Robb, J. R. Cheeseman, G. Scalmani, V. Barone, 
 G. A. Petersson, H. Nakatsuji, X. Li, M. Caricato, A. V. Marenich, 
 J. Bloino, B. G. Janesko, R. Gomperts, B. Mennucci, H. P. Hratchian, 
 J. V. Ortiz, A. F. Izmaylov, J. L. Sonnenberg, D. Williams-Young, 
 F. Ding, F. Lipparini, F. Egidi, J. Goings, B. Peng, A. Petrone, 
 T. Henderson, D. Ranasinghe, V. G. Zakrzewski, J. Gao, N. Rega, 
 G. Zheng, W. Liang, M. Hada, M. Ehara, K. Toyota, R. Fukuda, 
 J. Hasegawa, M. Ishida, T. Nakajima, Y. Honda, O. Kitao, H. Nakai, 
 T. Vreven, K. Throssell, J. A. Montgomery, Jr., J. E. Peralta, 
 F. Ogliaro, M. J. Bearpark, J. J. Heyd, E. N. Brothers, K. N. Kudin, 
 V. N. Staroverov, T. A. Keith, R. Kobayashi, J. Normand, 
 K. Raghavachari, A. P. Rendell, J. C. Burant, S. S. Iyengar, 
 J. Tomasi, M. Cossi, J. M. Millam, M. Klene, C. Adamo, R. Cammi, 
 J. W. Ochterski, R. L. Martin, K. Morokuma, O. Farkas, 
 J. B. Foresman, and D. J. Fox, Gaussian, Inc., Wallingford CT, 2016.
 
 ******************************************
 Gaussian 16:  ES64L-G16RevB.01 20-Dec-2017
                 9-Jan-2024 
 ******************************************
 %mem=24GB
 %nprocshared=12
 Will use up to   12 processors via shared memory.
 ----------------------------------------------------------------------
 # oniom(external='gau_xtb':amber=softfirst) nosymm geom=connectivity f
 orce punch=(coord,derivatives)
 ----------------------------------------------------------------------
 1/18=1000020,30=1,38=1,52=2,56=2,57=2,61=3,64=203/1,3;
 2/12=2,15=1,17=6,18=5,40=1/2;
 1/18=1000020,30=1,38=1,52=2,53=3172,61=3,64=203/20;
 3/5=30,11=9,25=1,30=1,41=10300000,43=2,71=1/1;
 4/20=11,22=1,24=3/2;
 7/7=1,30=1,33=-1,44=-1/16;
 1/18=1000020,30=1,52=2,53=2032,61=3/20;
 3/11=9,25=1,30=1,41=9900000,43=2,71=1/1;
 4/20=17,22=1,24=3,113=2,114=2/2;
 6/7=2,8=2,9=2,10=2/1;
 7/7=1,30=1,33=-1,44=-1/16;
 1/18=1000020,30=1,52=2,53=1022,61=3,64=203/20;
 3/5=30,11=9,25=1,30=1,41=10300000,43=2,71=1/1;
 4/20=11,22=1,24=3/2;
 7/7=1,30=1,33=-1,44=-1/16;
 1/18=1000020,30=1,52=2,53=3015,61=3,64=203/20;
 7/9=1,44=-1,126=2/16;
 1/18=1000020,30=1,52=2,61=3,64=203/3;
 99/10=6/99;
 -------------------
 Title Card Required
 -------------------
 Symbolic Z-matrix:
 Charge =  0 Multiplicity = 1 for low   level calculation on real  system.
 Charge =  1 Multiplicity = 1 for high  level calculation on model system.
 Charge =  1 Multiplicity = 1 for low   level calculation on model system.
 N-N3-0.001700        -1    62.911    30.139    42.665   L 
 C-CT-0.058800        -1    62.077    29.112    43.422   L 
 C-C-0.562100         -1    62.004    29.334    44.94    L 
 O-O--0.588900        -1    60.911    29.349    45.532   L 
 C-CT-0.090900        -1    62.593    27.695    43.164   L 
 C-CT--0.023600       -1    62.249    27.166    41.788   L 
 C-C-0.808700         -1    62.992    25.887    41.443   L 
 O-O2--0.818900       -1    63.911    25.512    42.187   L 
 O-O2--0.818900       -1    62.669    25.265    40.409   L 
 H-H-0.239100         -1    62.67326   31.08764   42.91906  L 
 H-HP-0.120200        -1    61.06585   29.19147   43.08476  L 
 H-HC--0.023200       -1    63.67609   27.71897   43.29564  L 
 H-HC--0.023200       -1    62.18886   27.13912   43.96356  L 
 H-HC--0.031500       -1    61.2069   27.15681   41.54747  L 
 H-HC--0.031500       -1    62.64309   27.93888   41.14486  L 
 H-H-0.239100         -1    63.90146   29.98347   42.8021  L 
 H-H-0.239100         -1    62.73557   30.02872   41.67151  L 
 N-N--0.415700        -1    63.179    29.507    45.549   L 
 C-CT-0.014300        -1    63.313    29.725    46.992   L 
 C-C-0.597300         -1    62.329    30.735    47.624   L 
 O-O--0.567900        -1    61.241    30.993    47.083   L 
 C-CT--0.204100       -1    64.769    30.069    47.344   L 
 C-C-0.713000         -1    65.263    31.3      46.619   L 
 O-O--0.593100        -1    65.638    31.225    45.442   L 
 N-N--0.919100        -1    65.247    32.448    47.301   L 
 H-H-0.271900         -1    64.02964   29.44928   45.0116  L 
 H-H1-0.104800        -1    63.07384   28.77594   47.47964  L 
 H-HC-0.079700        -1    64.93406   30.16332   48.41501  L 
 H-HC-0.079700        -1    65.39713   29.24117   47.01624  L 
 H-H-0.419600         -1    64.86354   32.50132   48.22391  L 
 H-H-0.419600         -1    65.51965   33.27067   46.79236  L 
 N-N--0.415700        -1    62.701    31.279    48.783   L 
 C-CT--0.025200       -1    61.814    32.189    49.486   L 
 C-C-0.597300         -1    60.689    31.377    50.125   L 
 O-O--0.567900        -1    60.378    31.565    51.308   L 
 H-H-0.271900         -1    63.52333   30.93712   49.24943  L 
 H-H1-0.069800        -1    62.34502   32.74818   50.25543  L 
 H-H1-0.069800        -1    61.44778   32.84096   48.74018  L 
 N-N--0.415700        -1    60.079    30.479    49.344   L 
 C-CT--0.001400       -1    59.008    29.617    49.818   L 
 C-C-0.597300         -1    59.476    28.184    49.832   L 
 O-O--0.567900        -1    60.263    27.772    48.982   L 
 C-CT--0.015200       -1    57.806    29.686    48.898   L 
 C-CA--0.001100       -1    57.158    31.015    48.839   L 
 C-CA--0.190600       -1    56.372    31.465    49.883   L 
 C-CA--0.190600       -1    57.287    31.811    47.709   L 
 C-CA--0.234100       -1    55.715    32.677    49.801   L 
 C-CA--0.234100       -1    56.637    33.021    47.614   L 
 C-C-0.322600         -1    55.849    33.446    48.657   L 
 O-OH--0.557900       -1    55.153    34.621    48.53    L 
 H-H-0.271900         -1    60.31037   30.42701   48.3649  L 
 H-H1-0.087600        -1    58.72457   29.92823   50.81198  L 
 H-HC-0.029500        -1    58.13925   29.40782   47.90268  L 
 H-HC-0.029500        -1    57.06028   28.95685   49.209   L 
 H-HA-0.169900        -1    56.29568   30.86684   50.78336  L 
 H-HA-0.169900        -1    57.84274   31.4197   46.86746  L 
 H-HA-0.165600        -1    55.15976   33.06883   50.62928  L 
 H-HA-0.165600        -1    56.70812   33.61993   46.73119  L 
 H-HO-0.399200        -1    54.34255   34.54119   49.05544  L 
 N-N--0.415700        -1    58.94     27.42     50.775   L 
 C-CT--0.038900       -1    59.257    26.007    50.936   L 
 C-C-0.597300         -1    58.051    25.246    50.369   L 
 O-O--0.567900        -1    56.952    25.802    50.261   L 
 C-CT-0.365400        -1    59.437    25.651    52.449   L 
 O-OH--0.676100       -1    58.16     25.599    53.099   L 
 C-CT--0.243800       -1    60.241    26.722    53.152   L 
 H-H-0.271900         -1    58.31669   27.87966   51.43595  L 
 H-H1-0.100700        -1    60.15819   25.73498   50.38851  L 
 H-H1-0.004300        -1    59.93178   24.68331   52.53774  L 
 H-HO-0.410200        -1    57.93977   26.48528   53.4316  L 
 H-HC-0.064200        -1    61.16385   26.91298   52.60516  L 
 H-HC-0.064200        -1    59.67206   27.64852   53.24773  L 
 H-HC-0.064200        -1    60.4926   26.37062   54.15241  L 
 N-N--0.415700        -1    58.237    23.988    50.003   L 
 C-CT--0.001400       -1    57.125    23.224    49.476   L 
 C-C-0.597300         -1    55.947    23.305    50.434   L 
 O-O--0.567900        -1    54.818    23.535    50.024   L 
 C-CT--0.015200       -1    57.523    21.77     49.293   L 
 C-CA--0.001100       -1    56.504    20.993    48.526   L 
 C-CA--0.190600       -1    56.513    20.982    47.129   L 
 C-CA--0.190600       -1    55.504    20.29     49.187   L 
 C-CA--0.234100       -1    55.538    20.281    46.402   L 
 C-CA--0.234100       -1    54.524    19.588    48.472   L 
 C-C-0.322600         -1    54.553    19.587    47.084   L 
 O-OH--0.557900       -1    53.615    18.851    46.398   L 
 H-H-0.271900         -1    59.15713   23.5777   50.03411  L 
 H-H1-0.087600        -1    56.84865   23.58277   48.49419  L 
 H-HC-0.029500        -1    58.4636   21.73604   48.74439  L 
 H-HC-0.029500        -1    57.69182   21.30213   50.26388  L 
 H-HA-0.169900        -1    57.2988   21.50312   46.59671  L 
 H-HA-0.169900        -1    55.46343   20.30369   50.2675  L 
 H-HA-0.165600        -1    55.55314   20.27683   45.32111  L 
 H-HA-0.165600        -1    53.73619   19.04922   48.97574  L 
 H-HO-0.399200        -1    53.58314   19.0567   45.45095  L 
 N-N--0.516300        -1    56.225    23.171    51.72    L 
 C-CT-0.039700        -1    55.169    23.219    52.709   L 
 C-C-0.536600         -1    54.439    24.55     52.674   L 
 O-O--0.581900        -1    53.275    24.615    53.025   L 
 C-CT-0.056000        -1    55.723    22.953    54.108   L 
 C-CT-0.013600        -1    55.169    21.687    54.787   L 
 C-C-0.805400         -1    56.146    20.506    54.791   L 
 O-O2--0.818800       -1    55.742    19.371    54.435   L 
 O-O2--0.818800       -1    57.317    20.706    55.172   L 
 H-H-0.293600         -1    57.18191   23.06545   52.02179  L 
 H-H1-0.110500        -1    54.43925   22.45685   52.45536  L 
 H-HC--0.017300       -1    56.81284   22.9288   54.08355  L 
 H-HC--0.017300       -1    55.46046   23.79463   54.75152  L 
 H-HC--0.042500       -1    54.85028   21.91706   55.80696  L 
 H-HC--0.042500       -1    54.33642   21.36445   54.22963  L 
 N-N--0.516300        -1    55.114    25.611    52.243   L 
 C-CT-0.038100        -1    54.495    26.943    52.158   L 
 C-C-0.536600         -1    53.341    26.897    51.184   L 
 O-O--0.581900        -1    52.233    27.35     51.476   L 
 C-CT--0.030300       -1    55.507    27.985    51.664   L 
 C-C-0.799400         -1    56.482    28.412    52.733   L 
 O-O2--0.801400       -1    56.312    28.022    53.903   L 
 O-O2--0.801400       -1    57.42     29.161    52.403   L 
 H-H-0.293600         -1    56.08007   25.50336   51.95641  L 
 H-H1-0.088000        -1    54.09851   27.23655   53.12976  L 
 H-HC--0.012200       -1    55.97616   27.7566   50.72354  L 
 H-HC--0.012200       -1    54.92286   28.88133   51.44513  L 
 N-N--0.415700        -1    53.631    26.379    50.      L 
 C-CT--0.001400       -1    52.628    26.248    48.973   L 
 C-C-0.597300         -1    51.535    25.331    49.475   L 
 O-O--0.567900        -1    50.372    25.634    49.314   L 
 C-CT--0.015200       -1    53.232    25.65     47.728   L 
 C-CA--0.001100       -1    54.381    26.425    47.198   L 
 C-CA--0.190600       -1    54.173    27.562    46.436   L 
 C-CA--0.190600       -1    55.699    26.013    47.431   L 
 C-CA--0.234100       -1    55.253    28.279    45.91    L 
 C-CA--0.234100       -1    56.782    26.723    46.905   L 
 C-C-0.322600         -1    56.553    27.854    46.146   L 
 O-OH--0.557900       -1    57.598    28.562    45.599   L 
 H-H-0.271900         -1    54.57049   26.02782   49.84344  L 
 H-H1-0.087600        -1    52.19573   27.22184   48.74074  L 
 H-HC-0.029500        -1    53.56232   24.63058   47.92999  L 
 H-HC-0.029500        -1    52.46537   25.59949   46.95338  L 
 H-HA-0.169900        -1    53.16961   27.89541   46.23889  L 
 H-HA-0.169900        -1    55.85274   25.15699   48.04917  L 
 H-HA-0.165600        -1    55.08774   29.13724   45.28182  L 
 H-HA-0.165600        -1    57.79422   26.40222   47.10499  L 
 H-HO-0.399200        -1    58.44268   28.35318   46.0222  L 
 N-N--0.347900        -1    51.906    24.219    50.095   L 
 C-CT--0.240000       -1    50.921    23.269    50.624   L 
 C-C-0.734100         -1    50.014    23.89     51.681   L 
 O-O--0.589400        -1    48.814    23.631    51.695   L 
 C-CT--0.009400       -1    51.616    22.004    51.162   L 
 C-CT-0.018700        -1    50.717    21.038    51.94    L 
 C-CT--0.047900       -1    50.732    21.274    53.479   L 
 C-CT--0.014300       -1    52.007    20.695    54.144   L 
 N-N3--0.385400       -1    52.09     20.809    55.655   L 
 H-H-0.274700         -1    52.90015   24.00961   50.15997  L 
 H-H1-0.142600        -1    50.24253   22.95848   49.82765  L 
 H-HC-0.036200        -1    52.03117   21.4685   50.30599  L 
 H-HC-0.036200        -1    52.44786   22.29807   51.79405  L 
 H-HC-0.010300        -1    49.70788   21.12427   51.54607  L 
 H-HC-0.010300        -1    51.049    20.01656   51.74919  L 
 H-HC-0.062100        -1    50.63987   22.33032   53.71027  L 
 H-HC-0.062100        -1    49.8822   20.76594   53.92575  L 
 H-HP-0.113500        -1    52.10432   19.64606   53.84398  L 
 H-HP-0.113500        -1    52.77756   21.24854   53.63077  L 
 H-H-0.340000         -1    51.3536   20.26503   56.08099  L 
 H-H-0.340000         -1    52.99444   20.48475   55.97649  L 
 H-H-0.340000         -1    51.96305   21.78559   55.91219  L 
 N-N--0.415700        -1    50.564    24.747    52.532   L 
 C-CT-0.014300        -1    49.761    25.391    53.567   L 
 C-C-0.597300         -1    48.836    26.416    52.979   L 
 O-O--0.567900        -1    47.811    26.719    53.581   L 
 C-CT--0.204100       -1    50.632    26.089    54.596   L 
 C-C-0.713000         -1    51.591    25.151    55.271   L 
 O-O--0.593100        -1    51.244    24.017    55.589   L 
 N-N--0.919100        -1    52.815    25.61     55.481   L 
 H-H-0.271900         -1    51.57044   24.87131   52.51659  L 
 H-H1-0.104800        -1    49.14215   24.64377   54.07046  L 
 H-HC-0.079700        -1    51.20504   26.87742   54.10769  L 
 H-HC-0.079700        -1    50.01242   26.5397   55.36955  L 
 H-H-0.419600         -1    53.04099   26.56803   55.25118  L 
 H-H-0.419600         -1    53.50778   24.96297   55.7938  L 
 N-N--0.415700        -1    49.239    27.02     51.861   L 
 C-CT--0.038900       -1    48.409    28.019    51.182   L 
 C-C-0.597300         -1    47.252    27.354    50.386   L 
 O-O--0.567900        -1    46.098    27.79     50.484   L 
 C-CT-0.365400        -1    49.256    28.948    50.283   L 
 O-OH--0.676100       -1    50.13     29.732    51.095   L 
 C-CT--0.243800       -1    48.382    29.897    49.52    L 
 H-H-0.271900         -1    50.12732   26.73537   51.4578  L 
 H-H1-0.100700        -1    47.93458   28.65222   51.93213  L 
 H-H1-0.004300        -1    49.84944   28.35702   49.58416  L 
 H-HO-0.410200        -1    50.5055   29.08744   51.70487  L 
 H-HC-0.064200        -1    48.953    30.76783   49.20524  L 
 H-HC-0.064200        -1    47.98101   29.39894   48.63758  L 
 H-HC-0.064200        -1    47.55825   30.20318   50.15723  L 
 N-N--0.415700        -1    47.559    26.288    49.638   L 
 C-CT-0.033700        -1    46.562    25.538    48.866   L 
 C-C-0.597300         -1    45.574    24.906    49.854   L 
 O-O--0.567900        -1    44.359    25.013    49.689   L 
 C-CT--0.182500       -1    47.231    24.452    48.029   L 
 H-H-0.271900         -1    48.5228   25.96928   49.60091  L 
 H-H1-0.082300        -1    46.01546   26.22041   48.21945  L 
 H-HC-0.060300        -1    47.83231   23.79344   48.65924  L 
 H-HC-0.060300        -1    46.4812   23.85462   47.50868  L 
 H-HC-0.060300        -1    47.87432   24.94188   47.30148  L 
 N-N--0.516300        -1    46.11     24.263    50.889   L 
 C-CT-0.039700        -1    45.305    23.644    51.936   L 
 C-C-0.536600         -1    44.315    24.636    52.587   L 
 O-O--0.581900        -1    43.18     24.265    52.901   L 
 C-CT-0.056000        -1    46.218    23.075    53.01    L 
 C-CT-0.013600        -1    46.09     21.591    53.2     L 
 C-C-0.805400         -1    46.989    20.791    52.291   L 
 O-O2--0.818800       -1    46.79     20.828    51.049   L 
 O-O2--0.818800       -1    47.887    20.11     52.841   L 
 H-H-0.293600         -1    47.11025   24.07743   50.89977  L 
 H-H1-0.110500        -1    44.71969   22.83768   51.49135  L 
 H-HC--0.017300       -1    47.19737   23.48088   53.12278  L 
 H-HC--0.017300       -1    45.79963   23.44446   53.94835  L 
 H-HC--0.042500       -1    46.3399   21.36577   54.2411  L 
 H-HC--0.042500       -1    45.04767   21.28898   53.05983  L 
 N-N--0.415700        -1    44.754    25.878    52.808   L 
 C-CT--0.027500       -1    43.928    26.933    53.405   L 
 C-C-0.597300         -1    42.846    27.382    52.428   L 
 O-O--0.567900        -1    41.72     27.674    52.817   L 
 C-CT--0.005000       -1    44.802    28.126    53.752   L 
 C-C*--0.141500       -1    44.076    29.238    54.393   L 
 C-CW--0.163800       -1    44.041    29.518    55.716   L 
 C-CB-0.124300        -1    43.322    30.27     53.743   L 
 N-NA--0.341800       -1    43.327    30.668    55.94    L 
 C-CN-0.138000        -1    42.869    31.148    54.744   L 
 C-CA--0.238700       -1    42.986    30.536    52.412   L 
 C-CA--0.260100       -1    42.096    32.275    54.459   L 
 C-CA--0.197200       -1    42.219    31.657    52.132   L 
 C-CA--0.113400       -1    41.783    32.512    53.152   L 
 H-H-0.271900         -1    45.72159   26.08306   52.58661  L 
 H-H1-0.112300        -1    43.45344   26.57335   54.31482  L 
 H-HC-0.033900        -1    45.58244   27.79278   54.43691  L 
 H-HC-0.033900        -1    45.29386   28.50385   52.85569  L 
 H-H4-0.206200        -1    44.56771   28.944    56.47163  L 
 H-H-0.341200         -1    43.29208   31.16747   56.81752  L 
 H-HA-0.170000        -1    43.40708   29.95551   51.61486  L 
 H-HA-0.157200        -1    41.79772   32.96621   55.23274  L 
 H-HA-0.144700        -1    42.00602   31.96007   51.12233  L 
 H-HA-0.141700        -1    41.24066   33.41582   52.90117  L 
 N-N--0.415700        -1    43.217    27.524    51.167   L 
 C-CT--0.051800       -1    42.261    27.927    50.16    L 
 C-C-0.597300         -1    41.184    26.848    50.062   L 
 O-O--0.567900        -1    40.       27.129    50.176   L 
 C-CT--0.110200       -1    42.964    28.118    48.816   L 
 C-CT-0.353100        -1    43.66     29.462    48.629   L 
 C-CT--0.412100       -1    44.404    29.475    47.3     L 
 C-CT--0.412100       -1    42.625    30.582    48.706   L 
 H-H-0.271900         -1    44.18021   27.33305   50.90471  L 
 H-H1-0.092200        -1    41.73771   28.82464   50.47648  L 
 H-HC-0.045700        -1    43.70557   27.33066   48.70517  L 
 H-HC-0.045700        -1    42.23125   28.00408   48.01529  L 
 H-HC--0.036100       -1    44.38605   29.60993   49.42683  L 
 H-HC-0.100000        -1    43.72796   29.29384   46.47462  L 
 H-HC-0.100000        -1    44.8796   30.44638   47.1664  L 
 H-HC-0.100000        -1    45.17753   28.70726   47.3115  L 
 H-HC-0.100000        -1    42.12853   30.60321   49.65722  L 
 H-HC-0.100000        -1    43.11221   31.536    48.52609  L 
 H-HC-0.100000        -1    41.86155   30.44415   47.94645  L 
 N-N--0.415700        -1    41.621    25.609    49.9     L 
 C-CT--0.051800       -1    40.74     24.467    49.804   L 
 C-C-0.597300         -1    39.806    24.398    50.995   L 
 O-O--0.567900        -1    38.621    24.151    50.832   L 
 C-CT--0.110200       -1    41.566    23.188    49.758   L 
 C-CT-0.353100        -1    41.848    22.506    48.433   L 
 C-CT--0.412100       -1    41.487    23.408    47.262   L 
 C-CT--0.412100       -1    43.296    22.091    48.416   L 
 H-H-0.271900         -1    42.62303   25.45566   49.82017  L 
 H-H1-0.092200        -1    40.08887   24.57603   48.94038  L 
 H-HC-0.045700        -1    42.49717   23.36238   50.29852  L 
 H-HC-0.045700        -1    41.05725   22.42914   50.35509  L 
 H-HC--0.036100       -1    41.23373   21.60761   48.36069  L 
 H-HC-0.100000        -1    41.97513   24.37539   47.36674  L 
 H-HC-0.100000        -1    41.8476   22.94256   46.34318  L 
 H-HC-0.100000        -1    40.41309   23.53012   47.17155  L 
 H-HC-0.100000        -1    43.53675   21.48037   49.28706  L 
 H-HC-0.100000        -1    43.49709   21.49991   47.52142  L 
 H-HC-0.100000        -1    43.94995   22.95706   48.39161  L 
 N-N--0.415700        -1    40.33     24.602    52.197   L 
 C-CT--0.024900       -1    39.489    24.545    53.381   L 
 C-C-0.597300         -1    38.649    25.81     53.545   L 
 O-O--0.567900        -1    37.861    25.925    54.498   L 
 C-CT-0.211700        -1    40.334    24.336    54.63    L 
 O-OH--0.654600       -1    41.156    25.464    54.879   L 
 H-H-0.271900         -1    41.33756   24.69368   52.28596  L 
 H-H1-0.084300        -1    38.80018   23.70399   53.30294  L 
 H-H1-0.035200        -1    39.67256   24.18537   55.48491  L 
 H-H1-0.035200        -1    40.95293   23.44461   54.51109  L 
 H-HO-0.427500        -1    41.9912   25.25328   54.43252  L 
 N-N--0.347900        -1    38.838    26.773    52.645   L 
 C-CT--0.135400       -1    38.096    28.022    52.7     L 
 C-C-0.734100         -1    37.148    28.243    51.549   L 
 O-O--0.589400        -1    36.336    29.162    51.592   L 
 C-CT--0.041400       -1    39.036    29.211    52.837   L 
 C-CC--0.001200       -1    39.502    29.425    54.237   L 
 N-NA--0.151300       -1    40.364    28.554    54.87    L 
 C-CW--0.114100       -1    39.164    30.358    55.154   L 
 C-CR--0.017000       -1    40.534    28.938    56.12    L 
 N-NA--0.171800       -1    39.816    30.029    56.317   L 
 H-H-0.274700         -1    39.55787   26.65455   51.94182  L 
 H-H1-0.121200        -1    37.44356   28.03461   53.57455  L 
 H-HC-0.081000        -1    39.87902   29.13246   52.15096  L 
 H-HC-0.081000        -1    38.50477   30.12272   52.56683  L 
 H-H-0.386600         -1    40.82824   27.77877   54.39127  L 
 H-H4-0.231700        -1    38.49198   31.19348   54.98694  L 
 H-H5-0.268100        -1    41.17916   28.44383   56.84033  L 
 H-H-0.391100         -1    39.76302   30.55789   57.1808  L 
 N-N--0.415700        -1    37.267    27.443    50.5     L 
 C-CT--0.038900       -1    36.368    27.577    49.371   L 
 C-C-0.597300         -1    35.91     26.169    49.094   L 
 O-O--0.567900        -1    36.684    25.227    49.225   L 
 C-CT-0.365400        -1    37.057    28.192    48.118   L 
 O-OH--0.676100       -1    36.073    28.455    47.115   L 
 C-CT--0.243800       -1    38.103    27.263    47.535   L 
 H-H-0.271900         -1    38.01573   26.75862   50.47717  L 
 H-H1-0.100700        -1    35.49147   28.17085   49.61534  L 
 H-H1-0.004300        -1    37.53092   29.13209   48.39305  L 
 H-HO-0.410200        -1    35.44699   29.13909   47.43735  L 
 H-HC-0.064200        -1    37.77432   26.24866   47.43368  L 
 H-HC-0.064200        -1    38.35443   27.61928   46.54267  L 
 H-HC-0.064200        -1    39.01488   27.30375   48.10553  L 
 N-N--0.347900        -1    34.616    26.017    48.844   L 
 C-CT--0.240000       -1    34.046    24.708    48.529   L 
 C-C-0.734100         -1    34.496    24.398    47.115   L 
 O-O--0.589400        -1    34.413    23.26     46.649   L 
 C-CT--0.009400       -1    32.517    24.761    48.621   L 
 C-CT-0.018700        -1    31.867    25.954    47.874   L 
 C-CT--0.047900       -1    31.656    25.665    46.369   L 
 C-CT--0.014300       -1    30.637    26.613    45.713   L 
 N-N3--0.385400       -1    30.152    26.037    44.408   L 
 H-H-0.274700         -1    34.02241   26.83531   48.87655  L 
 H-H1-0.142600        -1    34.4401   23.92719   49.18359  L 
 H-HC-0.036200        -1    32.0892   23.81652   48.27975  L 
 H-HC-0.036200        -1    32.2632   24.86154   49.67802  L 
 H-HC-0.010300        -1    30.88044   26.09876   48.31675  L 
 H-HC-0.010300        -1    32.41301   26.88776   48.00436  L 
 H-HC-0.062100        -1    32.58426   25.7553   45.81669  L 
 H-HC-0.062100        -1    31.29146   24.64102   46.26794  L 
 H-HP-0.113500        -1    29.79497   26.75179   46.39931  L 
 H-HP-0.113500        -1    31.10625   27.59495   45.56113  L 
 H-H-0.340000         -1    29.75904   25.1133   44.53832  L 
 H-H-0.340000         -1    29.44435   26.66228   44.03586  L 
 H-H-0.340000         -1    30.92483   25.98787   43.75605  L 
 N-N--0.415700        -1    34.98     25.451    46.455   L 
 C-CT-0.018800        -1    35.481    25.403    45.089   L 
 C-C-0.597300         -1    36.767    24.589    44.927   L 
 O-O--0.567900        -1    37.678    24.648    45.763   L 
 C-CT--0.046200       -1    35.742    26.819    44.578   L 
 C-CC--0.026600       -1    34.504    27.616    44.33    L 
 N-NA--0.381100       -1    33.892    27.667    43.099   L 
 C-CV-0.129200        -1    33.808    28.454    45.132   L 
 C-CR-0.205700        -1    32.876    28.509    43.148   L 
 N-NB--0.572700       -1    32.805    29.       44.371   L 
 H-H-0.271900         -1    35.06122   26.33389   46.93436  L 
 H-H1-0.088100        -1    34.71791   24.9496   44.4554  L 
 H-HC-0.040200        -1    36.48067   27.33849   45.16328  L 
 H-HC-0.040200        -1    36.22339   26.69205   43.6237  L 
 H-H-0.364900         -1    34.32285   27.34413   42.23952  L 
 H-H4-0.114700        -1    33.95002   28.6024   46.16958  L 
 H-H5-0.139200        -1    32.27661   28.82686   42.31063  L 
 N-N--0.347900        -1    36.836    23.87     43.814   L 
 C-CT--0.263700       -1    37.976    23.054    43.448   L 
 C-C-0.734100         -1    38.262    23.49     42.019   L 
 O-O--0.589400        -1    37.73     22.911    41.073   L 
 C-CT--0.000700       -1    37.567    21.593    43.519   L 
 C-CT-0.039000        -1    37.317    21.16     44.931   L 
 C-CT-0.048600        -1    38.558    21.498    45.729   L 
 N-N2--0.529500       -1    38.512    21.061    47.121   L 
 C-CA-0.807600        -1    38.151    21.836    48.139   L 
 N-N2--0.862700       -1    37.79     23.103    47.922   L 
 N-N2--0.862700       -1    38.176    21.341    49.374   L 
 H-H-0.274700         -1    36.03669   23.86726   43.19583  L 
 H-H1-0.156000        -1    38.87392   23.26131   44.01121  L 
 H-HC-0.032700        -1    36.66078   21.41986   42.93451  L 
 H-HC-0.032700        -1    38.3642   20.97889   43.09333  L 
 H-HC-0.028500        -1    36.44922   21.67107   45.34927  L 
 H-HC-0.028500        -1    37.14277   20.08347   44.95464  L 
 H-H1-0.068700        -1    39.4115   21.00659   45.25279  L 
 H-H1-0.068700        -1    38.78423   22.55343   45.74307  L 
 H-H-0.345600         -1    38.81526   20.12972   47.34014  L 
 H-H-0.447800         -1    37.85123   23.4938   46.99886  L 
 H-H-0.447800         -1    37.56526   23.7122   48.70383  L 
 H-H-0.447800         -1    38.52178   20.41895   49.54785  L 
 H-H-0.447800         -1    38.01749   22.00387   50.11739  L 
 N-N--0.254800        -1    39.117    24.52     41.845   L 
 C-CT--0.026600       -1    39.444    25.039    40.517   L 
 C-C-0.589600         -1    40.157    24.054    39.612   L 
 O-O--0.574800        -1    40.92     23.222    40.09    L 
 C-CT--0.007000       -1    40.313    26.235    40.843   L 
 C-CT-0.018900        -1    41.107    25.726    41.998   L 
 C-CT-0.019200        -1    40.059    25.055    42.851   L 
 H-H1-0.064100        -1    38.53731   25.37824   40.01614  L 
 H-HC-0.025300        -1    40.94089   26.52522   40.00229  L 
 H-HC-0.025300        -1    39.68668   27.07074   41.15566  L 
 H-HC-0.021300        -1    41.84566   25.00096   41.6651  L 
 H-HC-0.021300        -1    41.57298   26.54787   42.53387  L 
 H-H1-0.039100        -1    40.53731   24.27017   43.43906  L 
 H-H1-0.039100        -1    39.55838   25.78173   43.49258  L 
 N-N--0.415700        -1    39.823    24.077    38.325   L 
 C-CT--0.003100       -1    40.493    23.225    37.358   L 
 C-C-0.597300         -1    41.251    24.16     36.442   L 
 O-O--0.567900        -1    42.339    23.83     35.97    L 
 C-CT--0.003600       -1    39.525    22.408    36.521   L 
 C-CT--0.064500       -1    40.241    21.494    35.53    L 
 C-C-0.695100         -1    39.483    21.337    34.227   L 
 O-O--0.608600        -1    38.255    21.465    34.188   L 
 N-N--0.940700        -1    40.204    21.054    33.153   L 
 H-H-0.271900         -1    39.06304   24.66669   38.02617  L 
 H-H1-0.085000        -1    41.20716   22.54659   37.83087  L 
 H-HC-0.017100        -1    38.90082   21.79856   37.17657  L 
 H-HC-0.017100        -1    38.87455   23.10562   35.9905  L 
 H-HC-0.035200        -1    41.21759   21.8742   35.28527  L 
 H-HC-0.035200        -1    40.39948   20.52385   35.99354  L 
 H-H-0.425100         -1    39.74713   20.69756   32.32766  L 
 H-H-0.425100         -1    41.19745   20.88986   33.33593  L 
 N-N--0.415700        -1    40.671    25.334    36.206   L 
 C-CT--0.087500       -1    41.273    26.334    35.348   L 
 C-C-0.597300         -1    41.628    27.608    36.121   L 
 O-O--0.567900        -1    40.811    28.138    36.888   L 
 C-CT-0.298500        -1    40.346    26.679    34.165   L 
 C-CT--0.319200       -1    41.057    27.606    33.183   L 
 C-CT--0.319200       -1    39.897    25.401    33.47    L 
 H-H-0.271900         -1    39.76203   25.51699   36.61319  L 
 H-H1-0.096900        -1    42.19815   25.94483   34.9218  L 
 H-HC--0.029700       -1    39.45908   27.17818   34.54052  L 
 H-HC-0.079100        -1    40.40618   27.7949   32.33138  L 
 H-HC-0.079100        -1    41.28724   28.56204   33.65006  L 
 H-HC-0.079100        -1    41.97977   27.14365   32.8315  L 
 H-HC-0.079100        -1    39.32965   25.65113   32.57447  L 
 H-HC-0.079100        -1    40.76452   24.80268   33.19037  L 
 H-HC-0.079100        -1    39.25636   24.80931   34.12244  L 
 N-N--0.415700        -1    42.878    28.054    35.958   L 
 C-CT-0.033700        -1    43.382    29.258    36.611   L 
 C-C-0.597300         -1    43.525    30.276    35.529   L 
 O-O--0.567900        -1    44.078    29.982    34.475   L 
 C-CT--0.182500       -1    44.713    28.996    37.22    L 
 H-H-0.271900         -1    43.52614   27.51053   35.39522  L 
[...]
 9.678056,54.827007,27.984239\H,41.100217,55.35681,28.721084\H,40.35989
 7,55.99374,26.326326\H,43.227504,55.608674,26.128331\H,42.280148,57.05
 2915,26.267115\H,42.748745,56.238859,27.74305\H,40.226791,53.780978,25
 .311299\H,41.437774,54.780606,24.53158\H,41.996703,53.541723,25.62831\
 N,40.701,51.71,26.682\C,40.072,50.659,25.87\C,40.141,49.304,26.596\O,3
 9.42,48.35,26.232\C,40.746,50.563,24.502\H,41.604183,52.052868,26.3892
 15\H,39.087335,51.054932,25.749243\H,41.723568,50.090262,24.579555\H,4
 0.132504,49.951902,23.838954\H,40.85561,51.553575,24.05967\N,41.04,49.
 228,27.591\C,41.225,48.037,28.43\C,40.006,47.974,29.341\O,39.728,46.95
 8,29.981\C,42.51,48.13,29.243\H,41.621112,50.026924,27.786745\H,41.257
 044,47.149435,27.801023\H,42.410057,48.650396,30.194351\H,42.941588,47
 .145301,29.349418\H,43.247822,48.513678,28.576558\N,39.315,49.107,29.4
 25\C,38.066,49.195,30.164\C,36.989,49.302,29.08\O,35.866,49.77,29.32\H
 ,39.717698,49.95115,29.042392\H,37.880892,48.309491,30.77357\H,38.0496
 42,50.088409,30.786801\N,37.347,48.849,27.875\C,36.471,48.904,26.72\C,
 36.231,47.558,26.034\O,36.551,46.482,26.56\C,37.014,49.92,25.693\C,36.
 514,51.4,25.817\C,36.735,51.999,27.209\C,36.811,53.513,27.2\N,37.443,5
 3.987,28.462\H,38.24307,48.388924,27.780223\H,35.472015,49.221824,27.0
 27415\H,37.932784,49.687401,25.207521\H,36.47901,49.796703,24.761234\H
 ,37.046636,51.999949,25.07725\H,35.448697,51.448083,25.577671\H,35.735
 25,51.87557,27.6313\H,37.142632,51.405012,27.966025\H,37.4223,53.81604
 7,26.343863\H,35.807825,53.933213,27.067682\H,37.692865,54.965634,28.4
 24562\H,36.807975,53.836848,29.237811\H,38.254336,53.405686,28.660146\
 N,35.705,47.666,24.817\C,35.323,46.549,23.963\C,36.366,45.521,23.616\O
 ,36.028,44.342,23.519\C,34.673,47.06,22.664\C,33.235,47.586,22.82\C,32
 .798,48.503,21.669\O,33.47,48.599,20.636\N,31.674,49.197,21.859\H,35.4
 18248,48.584371,24.529375\H,34.54118,46.008114,24.489177\H,35.311023,4
 7.850099,22.263134\H,34.646537,46.255107,21.926653\H,32.54431,46.74607
 9,22.890394\H,33.163762,48.159378,23.744359\H,31.397169,49.773455,21.0
 83143\H,31.130095,49.093418,22.692842\N,37.602,45.949,23.37\C,38.664,4
 5.009,23.009\C,38.92,44.077,24.17\O,39.029,42.866,24.\C,39.925,45.752,
 22.652\H,37.809583,46.93328,23.410971\H,38.3541,44.407254,22.151435\H,
 40.661782,45.046616,22.271933\H,39.714639,46.468836,21.857079\H,40.331
 94,46.28251,23.514194\N,39.019,44.672,25.352\C,39.236,43.936,26.576\C,
 38.049,42.993,26.676\O,38.21,41.772,26.743\C,39.259,44.891,27.756\H,38
 .938801,45.676364,25.409389\H,40.148871,43.34329,26.538967\H,38.571895
 ,45.722762,27.638181\H,38.998629,44.348453,28.663249\H,40.270144,45.27
 1193,27.874926\N,36.855,43.573,26.605\C,35.61,42.822,26.678\C,35.603,4
 1.62,25.719\O,35.244,40.499,26.116\C,34.425,43.751,26.381\C,34.226,44.
 935,27.364\C,33.039,45.855,26.973\O,33.194,47.074,26.829\N,31.863,45.2
 62,26.786\H,36.819954,44.588941,26.607596\H,35.497501,42.433028,27.690
 679\H,34.506252,44.132783,25.374444\H,33.52178,43.139749,26.404544\H,3
 3.884413,44.452386,28.279838\H,35.087455,45.435083,27.749071\H,31.0972
 54,45.889054,26.61514\H,31.742215,44.291823,26.991875\N,36.053,41.835,
 24.482\C,36.085,40.766,23.489\C,37.039,39.656,23.859\O,36.749,38.49,23
 .587\C,36.42,41.293,22.1\C,36.67,40.2,21.054\C,35.482,39.247,20.862\C,
 34.248,39.939,20.267\N,33.082,39.007,20.128\H,36.351546,42.768786,24.2
 19335\H,35.10183,40.304274,23.445624\H,35.616603,41.948317,21.760996\H
 ,37.325961,41.898537,22.160145\H,36.877595,40.686187,20.099771\H,37.55
 8628,39.623537,21.311355\H,35.791347,38.469146,20.160816\H,35.199347,3
 8.75523,21.786615\H,33.98227,40.792935,20.893224\H,34.523304,40.31526,
 19.271455\H,32.904802,38.42487,20.933975\H,32.261309,39.464985,19.7643
 89\H,33.313443,38.376045,19.347108\N,38.177,40.006,24.459\C,39.139,39.
 001,24.877\C,38.508,38.216,26.013\O,38.601,36.991,26.051\C,40.437,39.6
 32,25.371\C,41.739,38.87,25.08\C,42.835,39.362,25.999\C,41.577,37.396,
 25.242\H,38.391431,40.991961,24.577244\H,39.317741,38.325071,24.043631
 \H,40.546228,40.617641,24.914668\H,40.357965,39.796474,26.443485\H,42.
 065493,39.068344,24.074502\H,42.692664,38.962307,27.002189\H,43.808106
 ,39.054427,25.616587\H,42.782056,40.441348,26.048322\H,40.854193,36.98
 4188,24.542614\H,42.51457,36.9105,25.034713\H,41.285702,37.193989,26.2
 67739\N,37.842,38.913,26.923\C,37.196,38.267,28.064\C,36.142,37.259,27
 .631\O,35.978,36.194,28.23\C,36.559,39.33,28.942\C,37.545,40.434,29.27
 7\C,36.96,41.504,30.139\O,35.79,41.363,30.542\O,37.683,42.483,30.416\H
 ,37.852356,39.926369,26.846015\H,37.955466,37.731153,28.634539\H,35.73
 9175,39.784149,28.391935\H,36.106698,38.905329,29.833748\H,38.222964,3
 9.942648,29.975977\H,38.278427,40.735383,28.584801\H,37.140783,43.1747
 79,30.816123\N,35.425,37.618,26.581\C,34.392,36.78,26.025\C,35.022,35.
 59,25.344\O,34.588,34.46,25.508\C,33.609,37.583,24.998\C,32.573,36.781
 ,24.256\C,32.147,37.435,22.95\O,31.623,36.762,22.05\N,32.355,38.749,22
 .84\H,35.595487,38.534964,26.179413\H,33.720621,36.418559,26.804854\H,
 33.122435,38.421353,25.500067\H,34.325534,37.985871,24.282291\H,32.967
 295,35.818762,24.002576\H,31.697211,36.64384,24.889722\H,31.728184,39.
 208389,22.202342\H,32.735246,39.236657,23.630951\N,36.027,35.86,24.535
 \C,36.709,34.809,23.813\C,37.241,33.789,24.807\O,37.024,32.583,24.651\
 C,37.852,35.418,23.02\C,38.579,34.443,22.167\C,37.912,33.365,21.597\C,
 39.936,34.597,21.932\C,38.596,32.457,20.807\C,40.62,33.699,21.147\C,39
 .953,32.623,20.581\H,36.326383,36.818504,24.388626\H,35.998951,34.3229
 59,23.152071\H,37.44591,36.18455,22.358683\H,38.557681,35.901955,23.69
 4323\H,36.855969,33.21176,21.725593\H,40.46535,35.438632,22.354324\H,3
 8.050034,31.702268,20.292624\H,41.666707,33.85784,20.961423\H,40.51472
 1,31.974182,19.95169\N,37.908,34.289,25.845\C,38.483,33.452,26.895\C,3
 7.391,32.606,27.544\O,37.585,31.416,27.78\C,39.24,34.315,27.969\C,39.5
 45,33.493,29.226\C,40.545,34.849,27.385\H,38.089521,35.28766,25.858851
 \H,39.198622,32.75812,26.458356\H,38.608993,35.158202,28.247182\H,40.2
 41299,34.035941,29.865414\H,38.632366,33.30854,29.79291\H,40.000684,32
 .541784,28.949654\H,41.284649,34.049938,27.340223\H,40.378386,35.20548
 7,26.372824\H,40.92161,35.654798,28.013571\N,36.238,33.217,27.794\C,35
 .1,32.541,28.397\C,34.551,31.43,27.467\O,34.282,30.299,27.901\C,34.036
 ,33.581,28.722\O,32.891,32.979,29.282\H,36.178553,34.210091,27.602204\
 H,35.408032,32.056785,29.320921\H,34.447491,34.298961,29.4327\H,33.747
 295,34.116258,27.818622\H,32.468205,32.412845,28.628615\N,34.449,31.71
 6,26.176\C,33.975,30.715,25.232\C,34.966,29.557,25.18\O,34.574,28.391,
 25.07\C,33.824,31.305,23.819\C,32.721,32.372,23.818\C,33.498,30.191,22
 .817\C,32.976,33.548,22.888\H,34.704421,32.642045,25.844217\H,33.01054
 5,30.31979,25.551829\H,34.768974,31.766614,23.52774\H,31.769345,31.911
 314,23.548544\H,32.585586,32.789985,24.814627\H,33.324745,30.630794,21
 .833868\H,34.312271,29.47678,22.724247\H,32.597072,29.658621,23.12477\
 H,33.075303,33.169594,21.871303\H,32.112442,34.209933,22.907149\H,33.8
 91538,34.065124,23.144318\N,36.252,29.877,25.286\C,37.314,28.878,25.24
 4\C,37.32,27.896,26.385\O,38.116,26.957,26.377\C,38.676,29.557,25.17\C
 ,38.992,30.121,23.797\C,40.163,31.044,23.886\C,39.268,28.984,22.85\H,3
 6.507812,30.860188,25.310048\H,37.146585,28.272116,24.356383\H,38.7151
 11,30.35955,25.900276\H,39.469719,28.854009,25.428064\H,38.134236,30.6
 76392,23.424113\H,41.01669,30.503074,24.262164\H,40.394861,31.425045,2
 2.895482\H,39.929006,31.889649,24.529041\H,38.729234,28.074193,23.0959
 38\H,38.887661,29.319931,21.899058\H,40.330774,28.753071,22.826945\N,3
 6.489,28.125,27.399\C,36.425,27.193,28.523\C,35.918,25.848,28.006\O,36
 .399,24.796,28.407\C,35.501,27.719,29.616\C,36.055,28.889,30.39\S,37.5
 84,28.571,31.29\C,38.752,29.44,30.254\H,35.941724,28.977312,27.411189\
 H,37.419395,27.028844,28.936969\H,34.6084,27.975151,29.082907\H,35.244
 023,26.93925,30.312966\H,36.208749,29.728699,29.712116\H,35.308442,29.
 188786,31.113048\H,38.502582,30.501271,30.23344\H,39.756977,29.316109,
 30.654192\H,38.715271,29.045816,29.238444\N,34.986,25.922,27.056\C,34.
 373,24.765,26.407\C,35.406,23.916,25.658\O,35.144,22.762,25.315\C,33.3
 02,25.246,25.452\H,34.665597,26.838804,26.772376\H,33.910713,24.132354
 ,27.165919\H,32.542842,25.80338,26.000594\H,33.735692,25.884599,24.681
 262\H,32.823005,24.389828,24.974251\N,36.577,24.499,25.396\C,37.662,23
 .818,24.689\C,38.695,23.247,25.649\O,39.611,22.532,25.23\C,38.354,24.7
 64,23.703\O,37.429,25.292,22.76\H,36.732477,25.438611,25.738297\H,37.2
 62796,22.983172,24.112639\H,38.767649,25.602714,24.263547\H,39.187337,
 24.26514,23.230681\H,36.716883,25.752608,23.215958\N,38.587,23.565,26.
 933\C,39.547,23.01,27.882\C,39.009,21.651,28.364\O,37.967,21.567,29.02
 1\C,39.835,23.962,29.078\C,40.47,25.253,28.595\C,40.815,23.33,30.009\C
 ,40.406,26.314,29.614\H,37.825978,24.149023,27.263789\H,40.509437,22.9
 15871,27.390279\H,38.90151,24.169083,29.604981\H,41.503863,25.090728,2
 8.285773\H,39.925203,25.621971,27.72813\H,41.02107,23.972405,30.86328\
 H,40.411283,22.40643,30.425927\H,41.751656,23.104436,29.499455\H,41.10
 1742,26.117386,30.428547\H,40.684365,27.264044,29.158266\H,39.395026,2
 6.403326,30.010924\N,39.708,20.565,28.\C,39.353,19.198,28.361\C,38.978
 ,19.099,29.823\O,39.675,19.646,30.686\C,40.652,18.449,28.123\C,41.252,
 19.159,26.999\C,41.022,20.601,27.332\H,38.556724,18.821876,27.717995\H
 ,41.312462,18.51669,28.989679\H,40.464079,17.401806,27.881304\H,42.315
 103,18.937024,26.903984\H,40.728375,18.903069,26.076271\H,41.780456,20
 .954709,28.030513\H,41.047123,21.179219,26.41567\N,37.859,18.436,30.09
 7\C,37.424,18.227,31.469\C,38.379,17.179,31.986\O,38.901,16.385,31.206
 \C,35.986,17.709,31.509\C,34.957,18.825,31.644\C,33.569,18.319,31.411\
 C,35.073,19.433,33.032\H,37.366738,17.961245,29.35871\H,37.548467,19.1
 45919,32.035044\H,35.790438,17.238017,30.576227\H,35.86425,16.978074,3
 2.298719\H,35.161684,19.598178,30.902126\H,33.344041,17.545375,32.1499
 55\H,32.852361,19.130782,31.52133\H,33.486354,17.892298,30.412736\H,36
 .00318,19.981206,33.153448\H,34.252819,20.131165,33.192006\H,35.004699
 ,18.652409,33.790861\N,38.643,17.16,33.297\C,39.569,16.152,33.828\C,38
 .931,14.758,33.765\O,39.63,13.736,33.788\C,39.751,16.587,35.282\C,39.3
 31,18.019,35.297\C,38.164,18.045,34.363\H,40.52032,16.170337,33.295997
 \H,39.094673,16.014704,35.941436\H,40.788366,16.477162,35.601258\H,39.
 058472,18.353206,36.298482\H,40.139496,18.622671,34.888206\H,37.277845
 ,17.620184,34.839543\H,37.973752,19.056506,34.024726\N,37.599,14.743,3
 3.638\C,36.766,13.526,33.584\C,36.954,12.676,32.317\O,36.034,11.945,31
 .914\C,35.277,13.908,33.691\C,35.011,15.053,34.692\O,35.003,14.808,35.
 921\O,34.79,16.202,34.245\H,37.110135,15.625983,33.718954\H,37.017961,
 12.900672,34.442209\H,34.924045,14.233786,32.709475\H,34.698419,13.030
 481,33.985057\N,38.142,12.782,31.706\C,38.524,12.084,30.464\C,37.833,1
 2.715,29.247\O,38.349,12.627,28.13\C,38.27,10.559,30.555\C,38.462,9.74
 9,29.25\C,39.764,10.059,28.524\C,40.992,9.618,29.295\N,42.252,10.143,2
 8.67\H,38.8387,13.333647,32.194074\H,39.585501,12.250447,30.304518\H,3
 8.932051,10.153323,31.320938\H,37.258631,10.325265,30.867348\H,38.4308
 84,8.685065,29.489103\H,37.610063,9.956971,28.607674\H,39.770273,9.484
 556,27.59854\H,39.913572,11.089912,28.263157\H,40.901658,9.991586,30.3
 20787\H,40.998153,8.52362,29.341188\H,43.063313,9.85277,29.200286\H,42
 .326392,9.79985,27.720778\H,42.215823,11.153928,28.638681\N,36.707,13.
 395,29.502\C,35.906,14.074,28.494\C,36.242,13.719,27.043\O,36.691,14.5
 61,26.253\C,35.936,15.572,28.712\H,36.32701,13.303049,30.432141\H,34.8
 72797,13.748726,28.630214\H,36.934817,15.901141,29.000835\H,35.590396,
 16.114524,27.831511\H,35.198059,15.726357,29.491819\N,36.017,12.446,26
 .726\C,36.217,11.883,25.399\C,35.198,10.749,25.302\O,34.459,10.701,24.
 294\C,37.644,11.35,25.221\O,38.004,10.448,26.249\O,35.099,9.965,26.278
 \H,35.644811,11.819017,27.427776\H,35.9718,12.597098,24.616553\H,37.71
 4658,10.848677,24.253089\H,38.336445,12.193825,25.23101\H,37.139354,10
 .077436,26.518692\S,65.057,39.663,43.032\O,63.928,40.472,42.622\O,66.1
 55,39.72,42.005\O,64.684,38.199,43.269\O,65.507,40.109,44.396\S,41.786
 ,45.461,35.929\O,40.709,45.525,34.781\O,43.174,45.652,35.305\O,41.548,
 46.5,36.976\O,41.594,44.047,36.587\S,50.052,42.791,32.407\O,49.268,42.
 903,31.113\O,51.494,42.883,32.074\O,49.684,43.773,33.381\O,49.694,41.4
 58,32.982\C,50.07171609,48.35778152,31.25445515\O,50.70597449,48.88153
 182,30.11623831\C,50.54503477,46.88861543,31.50913638\N,50.52699934,46
 .21028751,30.17806068\C,51.9984263,46.76934496,32.09892395\O,51.931184
 45,46.07890993,33.32341133\C,52.85438202,46.00403031,30.98437486\O,53.
 32080426,44.73289418,31.30509859\C,51.93247374,45.90656759,29.71794025
 \N,55.75544793,47.62151147,26.54532355\C,55.85361366,46.95668777,27.71
 086153\N,54.86811676,46.65122346,28.4748572\C,53.62882844,46.96738668,
 27.99148306\C,53.45833401,47.66662099,26.79216821\C,54.56570407,48.103
 62496,25.98216774\O,54.57745687,48.8117281,24.99925447\N,52.12271855,4
 7.8526536,26.5881126\C,51.43621232,47.3081525,27.61850441\C,52.3163321
 9,46.74222883,28.52631351\H,50.09215398,46.83855309,29.49476233\H,56.5
 8243056,47.96740508,26.0266343\H,49.99779819,45.33486367,30.24854522\H
 ,51.75340471,48.49207276,25.89220986\H,52.58705035,44.19325394,31.7055
 9417\H,51.81614496,46.64670064,34.09265701\H,51.66388808,48.8031885,30
 .23523197\H,56.83192564,46.63355694,28.02956753\H,50.36771251,47.38303
 224,27.6279692\H,51.9658345,44.85435677,29.40991262\H,53.74781097,46.5
 8418439,30.73867625\H,52.43166936,47.76235925,32.24188082\H,49.8609357
 ,46.38389781,32.20190359\H,48.99642765,48.35962365,31.06184989\H,50.25
 587672,48.94803086,32.15973814\O,57.101,30.217,43.49\H,57.225419,29.65
 9109,44.279089\H,57.15372,31.112596,43.85316\O,52.28,42.324,29.462\H,5
 1.972282,42.35335,30.39234\H,51.63196,42.882522,29.00622\O,62.825,34.6
 77,17.458\H,63.104762,35.604608,17.568685\H,62.745441,34.35693,18.3547
 95\O,56.806,23.124,28.036\H,56.82479,22.55106,27.221365\H,57.718171,23
 .044235,28.369696\O,36.912,45.26,30.677\H,37.869062,45.3934,30.560085\
 H,36.724638,45.762643,31.474824\O,66.197,30.868,30.412\H,66.962665,31.
 35341,30.735358\H,66.556621,30.269069,29.754976\O,28.63,22.508,41.748\
 H,28.290298,21.64327,41.992402\H,28.77521,22.433112,40.801161\O,67.573
 ,32.07,43.748\H,66.901368,31.675982,44.332113\H,67.315058,32.992319,43
 .711259\O,68.814,41.557,41.298\H,68.093089,40.927203,41.482009\H,68.85
 1605,42.058212,42.114661\O,58.684,53.018,20.453\H,58.82962,53.933523,2
 0.699362\H,58.16014,52.671181,21.19\O,49.539,44.372,40.218\H,49.415916
 ,43.49833,39.812796\H,50.484579,44.53203,40.073121\O,56.77,52.463,22.8
 81\H,57.347124,52.710022,23.609613\H,55.970766,52.976045,23.024167\O,5
 3.752,39.461,55.913\H,54.447813,39.242139,56.535504\H,53.265523,38.637
 387,55.81747\O,41.711,48.237,48.519\H,40.84897,48.52148,48.83205\H,41.
 737104,47.30499,48.756754\O,54.367,38.462,35.728\H,53.938137,38.770982
 ,36.549048\H,53.893904,37.633785,35.547097\O,54.713,37.245,51.306\H,54
 .143454,36.579809,50.905636\H,54.753467,36.973943,52.226579\O,61.387,3
 4.664,33.457\H,61.355355,35.278946,32.708525\H,62.146524,34.985288,33.
 971637\O,50.335,49.886,25.859\H,50.805307,49.794729,25.009799\H,49.678
 729,49.158359,25.813104\O,53.16,19.264,43.305\H,52.649425,19.447229,42
 .491792\H,53.958578,18.811555,42.970278\O,58.958,26.958,21.269\H,58.16
 0649,26.438504,21.431649\H,58.645426,27.861147,21.092827\O,58.897,19.5
 66,34.489\H,58.139668,19.40594,35.062419\H,59.210811,18.680748,34.2513
 26\O,35.977,22.178,35.757\H,36.764473,21.900779,35.25403\H,35.585909,2
 1.339366,36.018687\O,48.62,26.679,15.732\H,47.778388,26.588641,16.1762
 77\H,48.708743,27.636296,15.608468\O,28.69,23.108,31.183\H,28.315418,2
 2.28482,31.500944\H,28.085514,23.393578,30.496285\O,60.975,23.623,41.4
 56\H,61.101444,22.812644,40.932959\H,61.671299,24.195396,41.044782\O,5
 6.496,39.962,35.8\H,56.370743,40.498861,35.005558\H,55.745368,39.32977
 1,35.763963\O,42.506,40.359,16.099\H,42.551305,39.572215,15.519392\H,4
 2.974662,41.028599,15.592244\O,48.589,30.222,23.797\H,49.420001,30.429
 235,23.320913\H,47.933536,30.713621,23.293718\O,63.573,37.579,40.734\H
 ,64.047465,37.851269,39.924473\H,64.009129,38.080696,41.460232\O,61.50
 2,30.563,28.717\H,60.69106,31.002055,28.376702\H,61.652732,29.870631,2
 8.073797\O,56.132,24.315,38.953\H,55.795675,24.757971,38.151659\H,55.3
 98107,23.716507,39.164087\O,51.407,48.497,39.605\H,52.187644,48.21829,
 40.117182\H,51.464802,49.453238,39.657655\O,27.247,36.593,35.19\H,27.8
 38774,36.003905,35.662036\H,27.625697,37.461261,35.356507\O,53.739,48.
 663,41.184\H,53.760317,48.043151,41.927174\H,53.835932,49.520187,41.61
 9941\O,43.383,42.139,36.362\H,43.779523,42.414558,35.528817\H,42.73796
 3,42.87358,36.524842\O,62.543,45.799,36.665\H,62.299286,44.935426,37.0
 05708\H,63.158307,46.13405,37.320876\O,58.017,42.995,34.968\H,57.37097
 ,42.630573,34.344315\H,58.443629,43.71067,34.467783\O,54.632,48.563,16
 .037\H,55.431884,49.123805,16.197406\H,54.804649,47.803941,16.606312\O
 ,42.231,39.364,55.142\H,41.990004,39.524926,54.222315\H,41.492369,38.8
 45841,55.467515\O,65.244,16.271,37.01\H,64.956781,16.389542,37.949753\
 H,64.606031,15.603779,36.73257\O,46.926,37.901,58.484\H,46.076854,38.0
 59877,58.066593\H,47.296337,37.17346,57.980849\O,33.165,36.086,48.296\
 H,33.76651,36.41033,48.975647\H,32.392011,36.646539,48.38359\O,63.264,
 33.055,41.274\H,63.072057,32.58244,40.463447\H,63.971824,33.670887,40.
 9666\O,65.148,17.596,34.19\H,65.201941,17.018407,34.966243\H,64.324971
 ,17.323631,33.768093\O,72.182,34.966,38.892\H,71.633736,35.731698,38.6
 97187\H,72.773203,34.922545,38.13417\O,67.565,35.31,39.963\H,67.414612
 ,35.349633,39.009835\H,67.345757,36.203197,40.27157\O,42.155,20.55,52.
 451\H,42.749759,21.231128,52.774408\H,42.752984,19.859844,52.150194\O,
 53.42,28.552,55.504\H,53.529744,29.361184,56.013431\H,54.316984,28.402
 087,55.153845\O,28.634,28.274,34.811\H,28.490078,28.605044,35.702929\H
 ,27.74803,28.139579,34.470246\O,61.469,25.13,44.337\H,62.406456,25.089
 978,44.083605\H,61.203284,24.207451,44.287433\O,59.581,22.347,54.999\H
 ,58.928087,21.620073,55.072772\H,59.066049,23.113946,55.245052\O,64.94
 8,34.48,40.151\H,65.902759,34.630912,40.236727\H,64.580551,35.378084,4
 0.224035\O,53.551,51.151,43.062\H,53.657152,50.70426,43.907062\H,54.18
 2024,51.873103,43.104012\O,59.214,28.679,42.498\H,58.469085,29.252878,
 42.757169\H,59.189042,28.70331,41.537754\O,66.815,42.075,38.676\H,67.5
 55372,42.151822,39.292371\H,66.049858,42.073807,39.263522\O,36.791,27.
 28,41.438\H,37.005966,28.062935,40.89339\H,37.656024,26.923019,41.6383
 97\O,32.937,39.74,40.734\H,32.784381,38.971812,40.178081\H,32.850119,4
 0.476205,40.114779\O,52.074,34.6,56.133\H,51.42339,34.379927,55.428337
 \H,52.669625,33.849925,56.099876\O,50.905,23.462,27.625\H,51.434775,24
 .237923,27.368129\H,51.328948,22.74916,27.137917\O,49.884,44.209,42.79
 \H,50.786818,44.433089,42.514162\H,49.427791,44.202635,41.9248\O,59.15
 5,34.307,52.61\H,59.553001,33.534989,52.184715\H,58.585288,33.911266,5
 3.27234\O,51.457,36.682,38.969\H,51.618928,36.570168,38.003836\H,52.11
 0862,36.099976,39.380396\O,56.975,28.194,24.122\H,57.615972,27.542533,
 24.447935\H,57.473941,28.670665,23.433407\O,50.387,47.851,37.223\H,50.
 664229,48.039364,38.14261\H,49.568103,47.361351,37.332783\\Version=ES6
 4L-G16RevB.01\HF=-0.0261294\RMSD=0.000e+00\RMSF=3.440e-04\Dipole=-119.
 0679195,-64.2396759,-61.7729063\PG=C01 [X(C1440H2376N398O493S18)]\\@
 Punch of MOs requested, but none found.


 NATURE REVEALS EVERY SECRET ONCE.
                    - RALPH WALDO EMERSON
 Job cpu time:       0 days  0 hours  1 minutes 34.7 seconds.
 Elapsed time:       0 days  0 hours  0 minutes  8.4 seconds.
 File lengths (MBytes):  RWF=    850 Int=      0 D2E=      0 Chk=    830 Scr=      1
 Normal termination of Gaussian 16 at Tue Jan  9 12:55:33 2024.
