      -----------------------------------------------------------      
     |                   =====================                   |     
     |                           x T B                           |     
     |                   =====================                   |     
     |                         S. Grimme                         |     
     |          Mulliken Center for Theoretical Chemistry        |     
     |                    University of Bonn                     |     
      -----------------------------------------------------------      

   * xtb version 6.5.1 (b24c23e) compiled by 'conda@728c89f4b128' on 2022-07-12

   xtb is free software: you can redistribute it and/or modify it under
   the terms of the GNU Lesser General Public License as published by
   the Free Software Foundation, either version 3 of the License, or
   (at your option) any later version.
   
   xtb is distributed in the hope that it will be useful,
   but WITHOUT ANY WARRANTY; without even the implied warranty of
   MERCHANTABILITY or FITNESS FOR A PARTICULAR PURPOSE.  See the
   GNU Lesser General Public License for more details.
   
   Cite this work as:
   * C. Bannwarth, E. Caldeweyher, S. Ehlert, A. Hansen, P. Pracht,
     J. Seibert, S. Spicher, S. Grimme, WIREs Comput. Mol. Sci., 2020, 11,
     e01493. DOI: 10.1002/wcms.1493
   
   for GFN2-xTB:
   * C. Bannwarth, S. Ehlert and S. Grimme., J. Chem. Theory Comput., 2019,
     15, 1652-1671. DOI: 10.1021/acs.jctc.8b01176
   for GFN1-xTB:
   * S. Grimme, C. Bannwarth, P. Shushkov, J. Chem. Theory Comput., 2017,
     13, 1989-2009. DOI: 10.1021/acs.jctc.7b00118
   for GFN0-xTB:
   * P. Pracht, E. Caldeweyher, S. Ehlert, S. Grimme, ChemRxiv, 2019, preprint.
     DOI: 10.26434/chemrxiv.8326202.v1
   for GFN-FF:
   * S. Spicher and S. Grimme, Angew. Chem. Int. Ed., 2020, 59, 15665-15673.
     DOI: 10.1002/anie.202004239
   
   for ALPB and GBSA implicit solvation:
   * S. Ehlert, M. Stahn, S. Spicher, S. Grimme, J. Chem. Theory Comput.,
     2021, 17, 4250-4261. DOI: 10.1021/acs.jctc.1c00471
   
   for DFT-D4:
   * E. Caldeweyher, C. Bannwarth and S. Grimme, J. Chem. Phys., 2017,
     147, 034112. DOI: 10.1063/1.4993215
   * E. Caldeweyher, S. Ehlert, A. Hansen, H. Neugebauer, S. Spicher,
     C. Bannwarth and S. Grimme, J. Chem. Phys., 2019, 150, 154122.
     DOI: 10.1063/1.5090222
   * E. Caldeweyher, J.-M. Mewes, S. Ehlert and S. Grimme, Phys. Chem. Chem. Phys.
     2020, 22, 8499-8512. DOI: 10.1039/D0CP00502A
   
   for sTDA-xTB:
   * S. Grimme and C. Bannwarth, J. Chem. Phys., 2016, 145, 054103.
     DOI: 10.1063/1.4959605
   
   in the mass-spec context:
   * V. Asgeirsson, C. Bauer and S. Grimme, Chem. Sci., 2017, 8, 4879.
     DOI: 10.1039/c7sc00601b
   * J. Koopman and S. Grimme, ACS Omega 2019, 4, 12, 15120-15133.
     DOI: 10.1021/acsomega.9b02011
   
   for metadynamics refer to:
   * S. Grimme, J. Chem. Theory Comput., 2019, 155, 2847-2862
     DOI: 10.1021/acs.jctc.9b00143
   
   for SPH calculations refer to:
   * S. Spicher and S. Grimme, J. Chem. Theory Comput., 2021, 17, 1701-1714
     DOI: 10.1021/acs.jctc.0c01306
   
   with help from (in alphabetical order)
   P. Atkinson, C. Bannwarth, F. Bohle, G. Brandenburg, E. Caldeweyher
   M. Checinski, S. Dohm, S. Ehlert, S. Ehrlich, I. Gerasimov, C. Hölzer
   A. Katbashev, J. Koopman, C. Lavigne, S. Lehtola, F. März, M. Müller,
   F. Musil, H. Neugebauer, J. Pisarek, C. Plett, P. Pracht, F. Pultar,
   J. Seibert, P. Shushkov, S. Spicher, M. Stahn, M. Steiner, T. Strunk,
   J. Stückrath, T. Rose, and J. Unsleber
   
 * started run on 2022/11/04 at 14:56:20.455     

           -------------------------------------------------
          |                Calculation Setup                |
           -------------------------------------------------

          program call               : xtb gau_xtb.xyz --chrg 0 --uhf 0 --grad
          hostname                   : node17
          coordinate file            : gau_xtb.xyz
          omp threads                :                    24

   ID    Z sym.   atoms
    1    6 C      1, 3, 5, 7, 9, 11, 12, 14, 15, 17, 19, 21, 23-26, 32, 33,
                  35, 38
    2    1 H      2, 4, 8, 10, 16, 18, 20, 22, 27-29, 34, 36, 37, 41, 42
    3   17 Cl     6
    4    7 N      13, 30, 40
    5    8 O      31, 39

           -------------------------------------------------
          |                 G F N 2 - x T B                 |
           -------------------------------------------------

        Reference                      10.1021/acs.jctc.8b01176
      * Hamiltonian:
        H0-scaling (s, p, d)           1.850000    2.230000    2.230000
        zeta-weighting                 0.500000
      * Dispersion:
        s8                             2.700000
        a1                             0.520000
        a2                             5.000000
        s9                             5.000000
      * Repulsion:
        kExp                           1.500000    1.000000
        rExp                           1.000000
      * Coulomb:
        alpha                          2.000000
        third order                    shell-resolved
        anisotropic                    true
        a3                             3.000000
        a5                             4.000000
        cn-shift                       1.200000
        cn-exp                         4.000000
        max-rad                        5.000000


          ...................................................
          :                      SETUP                      :
          :.................................................:
          :  # basis functions                 126          :
          :  # atomic orbitals                 125          :
          :  # shells                           69          :
          :  # electrons                       130          :
          :  max. iterations                   250          :
          :  Hamiltonian                  GFN2-xTB          :
          :  restarted?                      false          :
          :  GBSA solvation                  false          :
          :  PC potential                    false          :
          :  electronic temp.          300.0000000     K    :
          :  accuracy                    1.0000000          :
          :  -> integral cutoff          0.2500000E+02      :
          :  -> integral neglect         0.1000000E-07      :
          :  -> SCF convergence          0.1000000E-05 Eh   :
          :  -> wf. convergence          0.1000000E-03 e    :
          :  Broyden damping             0.4000000          :
          ...................................................

 iter      E             dE          RMSdq      gap      omega  full diag
   1    -73.2781786 -0.732782E+02  0.441E+00    2.79       0.0  T
   2    -73.3728782 -0.946996E-01  0.264E+00    2.70       1.0  T
   3    -73.3588433  0.140349E-01  0.135E+00    2.57       1.0  T
   4    -73.3866313 -0.277880E-01  0.533E-01    2.63       1.0  T
   5    -73.3973059 -0.106745E-01  0.113E-01    2.55       1.0  T
   6    -73.3974714 -0.165578E-03  0.605E-02    2.56       1.0  T
   7    -73.3975344 -0.629843E-04  0.268E-02    2.55       1.0  T
   8    -73.3975378 -0.333884E-05  0.128E-02    2.55       1.2  T
   9    -73.3975413 -0.351234E-05  0.533E-03    2.56       2.9  T
  10    -73.3975415 -0.233888E-06  0.326E-03    2.56       4.7  T
  11    -73.3975416 -0.107098E-06  0.223E-03    2.56       6.9  T
  12    -73.3975417 -0.542793E-07  0.135E-03    2.56      11.4  T
  13    -73.3975417 -0.229668E-07  0.869E-04    2.56      17.7  T
  14    -73.3975417 -0.125503E-07  0.397E-04    2.56      38.9  T

   *** convergence criteria satisfied after 14 iterations ***

         #    Occupation            Energy/Eh            Energy/eV
      -------------------------------------------------------------
         1        2.0000           -1.0586223             -28.8066
       ...           ...                  ...                  ...
        59        2.0000           -0.4201676             -11.4333
        60        2.0000           -0.4130551             -11.2398
        61        2.0000           -0.4085043             -11.1160
        62        2.0000           -0.4019811             -10.9385
        63        2.0000           -0.3991068             -10.8602
        64        2.0000           -0.3950478             -10.7498
        65        2.0000           -0.3747321             -10.1970 (HOMO)
        66                         -0.2808248              -7.6416 (LUMO)
        67                         -0.2553193              -6.9476
        68                         -0.2466638              -6.7121
        69                         -0.2431118              -6.6154
        70                         -0.2381366              -6.4800
       ...                                ...                  ...
       125                          0.6499313              17.6855
      -------------------------------------------------------------
                  HL-Gap            0.0939073 Eh            2.5553 eV
             Fermi-level           -0.3277784 Eh           -8.9193 eV

 SCC (total)                   0 d,  0 h,  0 min,  1.574 sec
 SCC setup                      ...        0 min,  0.000 sec (  0.016%)
 Dispersion                     ...        0 min,  0.002 sec (  0.132%)
 classical contributions        ...        0 min,  0.017 sec (  1.064%)
 integral evaluation            ...        0 min,  0.002 sec (  0.158%)
 iterations                     ...        0 min,  1.371 sec ( 87.077%)
 molecular gradient             ...        0 min,  0.174 sec ( 11.029%)
 printout                       ...        0 min,  0.008 sec (  0.504%)

         :::::::::::::::::::::::::::::::::::::::::::::::::::::
         ::                     SUMMARY                     ::
         :::::::::::::::::::::::::::::::::::::::::::::::::::::
         :: total energy             -72.402649117922 Eh    ::
         :: gradient norm              0.074016953265 Eh/a0 ::
         :: HOMO-LUMO gap              2.555346686153 eV    ::
         ::.................................................::
         :: SCC energy               -73.397541698963 Eh    ::
         :: -> isotropic ES            0.066715189653 Eh    ::
         :: -> anisotropic ES          0.002092580754 Eh    ::
         :: -> anisotropic XC          0.042606050921 Eh    ::
         :: -> dispersion             -0.052429429696 Eh    ::
         :: repulsion energy           0.994294764879 Eh    ::
         :: add. restraining           0.000000000000 Eh    ::
         :: total charge              -0.000000000000 e     ::
         :::::::::::::::::::::::::::::::::::::::::::::::::::::

           -------------------------------------------------
          |                Property Printout                |
           -------------------------------------------------

    * Orbital Energies and Occupations

         #    Occupation            Energy/Eh            Energy/eV
      -------------------------------------------------------------
         1        2.0000           -1.0586223             -28.8066
       ...           ...                  ...                  ...
        53        2.0000           -0.4435869             -12.0706
        54        2.0000           -0.4399100             -11.9706
        55        2.0000           -0.4305837             -11.7168
        56        2.0000           -0.4268620             -11.6155
        57        2.0000           -0.4252967             -11.5729
        58        2.0000           -0.4230051             -11.5106
        59        2.0000           -0.4201676             -11.4333
        60        2.0000           -0.4130551             -11.2398
        61        2.0000           -0.4085043             -11.1160
        62        2.0000           -0.4019811             -10.9385
        63        2.0000           -0.3991068             -10.8602
        64        2.0000           -0.3950478             -10.7498
        65        2.0000           -0.3747321             -10.1970 (HOMO)
        66                         -0.2808248              -7.6416 (LUMO)
        67                         -0.2553193              -6.9476
        68                         -0.2466638              -6.7121
        69                         -0.2431118              -6.6154
        70                         -0.2381366              -6.4800
        71                         -0.2179655              -5.9311
        72                         -0.1976271              -5.3777
        73                         -0.1693951              -4.6095
        74                         -0.1386280              -3.7723
        75                         -0.1179914              -3.2107
        76                         -0.0963909              -2.6229
       ...                                ...                  ...
       125                          0.6499313              17.6855
      -------------------------------------------------------------
                  HL-Gap            0.0939073 Eh            2.5553 eV
             Fermi-level           -0.3277784 Eh           -8.9193 eV

     #   Z          covCN         q      C6AA      α(0)
     1   6 C        2.924    -0.029    28.716     8.788
     2   1 H        0.925     0.046     2.366     2.406
     3   6 C        2.984    -0.040    28.990     8.832
     4   1 H        0.925     0.058     2.217     2.328
     5   6 C        2.888     0.099    25.798     8.327
     6  17 Cl       0.987    -0.170   104.507    15.640
     7   6 C        2.923    -0.037    28.923     8.819
     8   1 H        0.925     0.062     2.172     2.305
     9   6 C        2.916    -0.021    28.524     8.758
    10   1 H        0.925     0.074     2.045     2.237
    11   6 C        2.977     0.009    27.806     8.650
    12   6 C        2.913     0.103    25.721     8.316
    13   7 N        1.845    -0.243    27.184     7.727
    14   6 C        2.963    -0.013    28.343     8.732
    15   6 C        2.913    -0.026    28.662     8.779
    16   1 H        0.925     0.039     2.463     2.454
    17   6 C        2.910    -0.031    28.766     8.795
    18   1 H        0.925     0.037     2.489     2.467
    19   6 C        2.906    -0.027    28.675     8.781
    20   1 H        0.925     0.039     2.468     2.457
    21   6 C        2.914    -0.034    28.841     8.806
    22   1 H        0.925     0.037     2.485     2.465
    23   6 C        2.961     0.008    27.832     8.653
    24   6 C        2.996    -0.050    29.238     8.870
    25   6 C        3.080     0.085    26.021     8.363
    26   6 C        3.755    -0.111    22.688     6.792
    27   1 H        0.924     0.055     2.261     2.352
    28   1 H        0.925     0.055     2.256     2.349
    29   1 H        0.924     0.065     2.140     2.288
    30   7 N        1.953    -0.156    25.151     7.437
    31   8 O        1.807    -0.138    16.363     5.462
    32   6 C        3.099     0.129    25.061     8.204
    33   6 C        3.824     0.066    19.459     6.277
    34   1 H        0.922     0.049     2.327     2.386
    35   6 C        3.811    -0.092    22.254     6.715
    36   1 H        0.924     0.065     2.143     2.290
    37   1 H        0.924     0.062     2.176     2.307
    38   6 C        2.744     0.291    22.072     7.693
    39   8 O        0.858    -0.420    22.078     6.300
    40   7 N        2.637    -0.272    27.041     7.723
    41   1 H        0.860     0.193     1.141     1.673
    42   1 H        0.860     0.183     1.200     1.716

 Mol. C6AA /au·bohr⁶  :      25763.453735
 Mol. C8AA /au·bohr⁸  :     659084.186809
 Mol. α(0) /au        :        252.715899


Wiberg/Mayer (AO) data.
largest (>0.10) Wiberg bond orders for each atom

 ---------------------------------------------------------------------------
     #   Z sym  total        # sym  WBO       # sym  WBO       # sym  WBO
 ---------------------------------------------------------------------------
     1   6 C    3.990 --     3 C    1.455    11 C    1.381     2 H    0.963
                             7 C    0.102
     2   1 H    0.998 --     1 C    0.963
     3   6 C    3.987 --     1 C    1.455     5 C    1.397     4 H    0.967
                             9 C    0.104
     4   1 H    0.996 --     3 C    0.967
     5   6 C    3.913 --     3 C    1.397     7 C    1.389     6 Cl   0.982
     6  17 Cl   1.117 --     5 C    0.982
     7   6 C    3.986 --     9 C    1.456     5 C    1.389     8 H    0.967
                             1 C    0.102
     8   1 H    0.996 --     7 C    0.967
     9   6 C    3.984 --     7 C    1.456    11 C    1.376    10 H    0.964
                             3 C    0.104
    10   1 H    0.995 --     9 C    0.964
    11   6 C    3.987 --     1 C    1.381     9 C    1.376    12 C    1.042
    12   6 C    3.966 --    13 N    1.778    11 C    1.042    14 C    1.017
    13   7 N    3.064 --    12 C    1.778    33 C    0.992
    14   6 C    3.983 --    15 C    1.381    23 C    1.341    12 C    1.017
    15   6 C    3.990 --    17 C    1.466    14 C    1.381    16 H    0.967
                            21 C    0.103
    16   1 H    0.998 --    15 C    0.967
    17   6 C    3.982 --    15 C    1.466    19 C    1.401    18 H    0.971
    18   1 H    0.998 --    17 C    0.971
    19   6 C    3.989 --    21 C    1.472    17 C    1.401    20 H    0.971
    20   1 H    0.998 --    19 C    0.971
    21   6 C    3.990 --    19 C    1.472    23 C    1.373    22 H    0.968
                            15 C    0.103
    22   1 H    0.998 --    21 C    0.968
    23   6 C    3.986 --    21 C    1.373    14 C    1.341    24 C    1.067
    24   6 C    3.973 --    32 C    1.482    25 C    1.225    23 C    1.067
    25   6 C    3.970 --    30 N    1.591    24 C    1.225    26 C    1.025
    26   6 C    3.993 --    25 C    1.025    29 H    0.981    28 H    0.974
                            27 H    0.966
    27   1 H    0.997 --    26 C    0.966
    28   1 H    0.997 --    26 C    0.974
    29   1 H    0.995 --    26 C    0.981
    30   7 N    2.920 --    25 C    1.591    31 O    1.052    32 C    0.142
    31   8 O    2.436 --    32 C    1.176    30 N    1.052
    32   6 C    3.925 --    24 C    1.482    31 O    1.176    33 C    0.980
                            30 N    0.142
    33   6 C    3.987 --    35 C    0.994    13 N    0.992    32 C    0.980
                            34 H    0.935
    34   1 H    0.997 --    33 C    0.935
    35   6 C    3.995 --    33 C    0.994    37 H    0.966    38 C    0.960
                            36 H    0.955
    36   1 H    0.995 --    35 C    0.955
    37   1 H    0.996 --    35 C    0.966
    38   6 C    3.947 --    39 O    1.720    40 N    1.239    35 C    0.960
    39   8 O    2.019 --    38 C    1.720    40 N    0.190
    40   7 N    3.347 --    38 C    1.239    42 H    0.946    41 H    0.941
                            39 O    0.190
    41   1 H    0.962 --    40 N    0.941
    42   1 H    0.967 --    40 N    0.946
 ---------------------------------------------------------------------------

Topologies differ in total number of bonds
Writing topology from bond orders to xtbtopo.mol

molecular dipole:
                 x           y           z       tot (Debye)
 q only:        0.479       0.182       0.483
   full:        0.071       0.222       0.522       1.454
molecular quadrupole (traceless):
                xx          xy          yy          xz          yz          zz
 q only:       34.983      -9.312     -21.992     -10.868      -3.041     -12.992
  q+dip:       21.014      -3.281     -22.076     -10.022      -6.007       1.062
   full:       18.787      -3.429     -18.238      -8.534      -8.030      -0.549


           -------------------------------------------------
          | TOTAL ENERGY              -72.402649117922 Eh   |
          | GRADIENT NORM               0.074016953265 Eh/α |
          | HOMO-LUMO GAP               2.555346686153 eV   |
           -------------------------------------------------

------------------------------------------------------------------------
 * finished run on 2022/11/04 at 14:56:22.220     
------------------------------------------------------------------------
 total:
 * wall-time:     0 d,  0 h,  0 min,  1.765 sec
 *  cpu-time:     0 d,  0 h,  0 min, 41.328 sec
 * ratio c/w:    23.411 speedup
 SCF:
 * wall-time:     0 d,  0 h,  0 min,  1.575 sec
 *  cpu-time:     0 d,  0 h,  0 min, 38.079 sec
 * ratio c/w:    24.176 speedup

