      -----------------------------------------------------------      
     |                   =====================                   |     
     |                           x T B                           |     
     |                   =====================                   |     
     |                         S. Grimme                         |     
     |          Mulliken Center for Theoretical Chemistry        |     
     |                    University of Bonn                     |     
      -----------------------------------------------------------      

   * xtb version 6.6.0 (2ccbbd7) compiled by 'conda@6fe65c42fc39' on 2023-02-10

   xtb is free software: you can redistribute it and/or modify it under
   the terms of the GNU Lesser General Public License as published by
   the Free Software Foundation, either version 3 of the License, or
   (at your option) any later version.
   
   xtb is distributed in the hope that it will be useful,
   but WITHOUT ANY WARRANTY; without even the implied warranty of
   MERCHANTABILITY or FITNESS FOR A PARTICULAR PURPOSE.  See the
   GNU Lesser General Public License for more details.
   
   Cite this work as:
   * C. Bannwarth, E. Caldeweyher, S. Ehlert, A. Hansen, P. Pracht,
     J. Seibert, S. Spicher, S. Grimme, WIREs Comput. Mol. Sci., 2020, 11,
     e01493. DOI: 10.1002/wcms.1493
   
   for GFN2-xTB:
   * C. Bannwarth, S. Ehlert and S. Grimme., J. Chem. Theory Comput., 2019,
     15, 1652-1671. DOI: 10.1021/acs.jctc.8b01176
   for GFN1-xTB:
   * S. Grimme, C. Bannwarth, P. Shushkov, J. Chem. Theory Comput., 2017,
     13, 1989-2009. DOI: 10.1021/acs.jctc.7b00118
   for GFN0-xTB:
   * P. Pracht, E. Caldeweyher, S. Ehlert, S. Grimme, ChemRxiv, 2019, preprint.
     DOI: 10.26434/chemrxiv.8326202.v1
   for GFN-FF:
   * S. Spicher and S. Grimme, Angew. Chem. Int. Ed., 2020, 59, 15665-15673.
     DOI: 10.1002/anie.202004239
   
   for ALPB and GBSA implicit solvation:
   * S. Ehlert, M. Stahn, S. Spicher, S. Grimme, J. Chem. Theory Comput.,
     2021, 17, 4250-4261. DOI: 10.1021/acs.jctc.1c00471
   
   for DFT-D4:
   * E. Caldeweyher, C. Bannwarth and S. Grimme, J. Chem. Phys., 2017,
     147, 034112. DOI: 10.1063/1.4993215
   * E. Caldeweyher, S. Ehlert, A. Hansen, H. Neugebauer, S. Spicher,
     C. Bannwarth and S. Grimme, J. Chem. Phys., 2019, 150, 154122.
     DOI: 10.1063/1.5090222
   * E. Caldeweyher, J.-M. Mewes, S. Ehlert and S. Grimme, Phys. Chem. Chem. Phys.
     2020, 22, 8499-8512. DOI: 10.1039/D0CP00502A
   
   for sTDA-xTB:
   * S. Grimme and C. Bannwarth, J. Chem. Phys., 2016, 145, 054103.
     DOI: 10.1063/1.4959605
   
   in the mass-spec context:
   * V. Asgeirsson, C. Bauer and S. Grimme, Chem. Sci., 2017, 8, 4879.
     DOI: 10.1039/c7sc00601b
   * J. Koopman and S. Grimme, ACS Omega 2019, 4, 12, 15120-15133.
     DOI: 10.1021/acsomega.9b02011
   
   for metadynamics refer to:
   * S. Grimme, J. Chem. Theory Comput., 2019, 155, 2847-2862
     DOI: 10.1021/acs.jctc.9b00143
   
   for SPH calculations refer to:
   * S. Spicher and S. Grimme, J. Chem. Theory Comput., 2021, 17, 1701-1714
     DOI: 10.1021/acs.jctc.0c01306
   
   with help from (in alphabetical order)
   P. Atkinson, C. Bannwarth, F. Bohle, G. Brandenburg, E. Caldeweyher
   M. Checinski, S. Dohm, S. Ehlert, S. Ehrlich, I. Gerasimov, C. Hölzer
   A. Katbashev, J. Koopman, C. Lavigne, S. Lehtola, F. März, M. Müller,
   F. Musil, H. Neugebauer, J. Pisarek, C. Plett, P. Pracht, F. Pultar,
   J. Seibert, P. Shushkov, S. Spicher, M. Stahn, M. Steiner, T. Strunk,
   J. Stückrath, T. Rose, and J. Unsleber
   
 * started run on 2024/01/03 at 10:08:41.941     

           -------------------------------------------------
          |                Calculation Setup                |
           -------------------------------------------------

          program call               : xtb gau_xtb.xyz --chrg 0 --uhf 0 --grad
          hostname                   : node41
          coordinate file            : gau_xtb.xyz
          omp threads                :                    12

   ID    Z sym.   atoms
    1    6 C      1, 4, 7, 9, 11, 13-21
    2    7 N      2, 5, 8, 10, 12
    3    8 O      3, 6
    4    9 F      22
    5    1 H      23-36

           -------------------------------------------------
          |                 G F N 2 - x T B                 |
           -------------------------------------------------

        Reference                      10.1021/acs.jctc.8b01176
      * Hamiltonian:
        H0-scaling (s, p, d)           1.850000    2.230000    2.230000
        zeta-weighting                 0.500000
      * Dispersion:
        s8                             2.700000
        a1                             0.520000
        a2                             5.000000
        s9                             5.000000
      * Repulsion:
        kExp                           1.500000    1.000000
        rExp                           1.000000
      * Coulomb:
        alpha                          2.000000
        third order                    shell-resolved
        anisotropic                    true
        a3                             3.000000
        a5                             4.000000
        cn-shift                       1.200000
        cn-exp                         4.000000
        max-rad                        5.000000


          ...................................................
          :                      SETUP                      :
          :.................................................:
          :  # basis functions                 102          :
          :  # atomic orbitals                 102          :
          :  # shells                           58          :
          :  # electrons                       114          :
          :  max. iterations                   250          :
          :  Hamiltonian                  GFN2-xTB          :
          :  restarted?                      false          :
          :  GBSA solvation                  false          :
          :  PC potential                    false          :
          :  electronic temp.          300.0000000     K    :
          :  accuracy                    1.0000000          :
          :  -> integral cutoff          0.2500000E+02      :
          :  -> integral neglect         0.1000000E-07      :
          :  -> SCF convergence          0.1000000E-05 Eh   :
          :  -> wf. convergence          0.1000000E-03 e    :
          :  Broyden damping             0.4000000          :
          ...................................................

 iter      E             dE          RMSdq      gap      omega  full diag
   1    -65.2566752 -0.652567E+02  0.439E+00    2.98       0.0  T
   2    -65.4112743 -0.154599E+00  0.267E+00    3.05       1.0  T
   3    -65.4287293 -0.174550E-01  0.136E+00    3.14       1.0  T
   4    -65.4328508 -0.412146E-02  0.393E-01    2.82       1.0  T
   5    -65.4380130 -0.516226E-02  0.107E-01    2.86       1.0  T
   6    -65.4380745 -0.614527E-04  0.512E-02    2.88       1.0  T
   7    -65.4380931 -0.185947E-04  0.218E-02    2.90       1.0  T
   8    -65.4380965 -0.341356E-05  0.675E-03    2.91       2.5  T
   9    -65.4380971 -0.646928E-06  0.334E-03    2.90       5.0  T
  10    -65.4380972 -0.911937E-07  0.122E-03    2.90      13.6  T
  11    -65.4380973 -0.211185E-07  0.518E-04    2.90      32.1  T
  12    -65.4380973 -0.371546E-08  0.200E-04    2.90      83.5  T

   *** convergence criteria satisfied after 12 iterations ***

         #    Occupation            Energy/Eh            Energy/eV
      -------------------------------------------------------------
         1        2.0000           -0.8102243             -22.0473
       ...           ...                  ...                  ...
        51        2.0000           -0.4191508             -11.4057
        52        2.0000           -0.4138327             -11.2610
        53        2.0000           -0.4043972             -11.0042
        54        2.0000           -0.3931789             -10.6989
        55        2.0000           -0.3911798             -10.6445
        56        2.0000           -0.3695330             -10.0555
        57        2.0000           -0.3650860              -9.9345 (HOMO)
        58                         -0.2583902              -7.0312 (LUMO)
        59                         -0.2296954              -6.2503
        60                         -0.2280773              -6.2063
        61                         -0.2091072              -5.6901
        62                         -0.1964500              -5.3457
       ...                                ...                  ...
       102                          0.6679263              18.1752
      -------------------------------------------------------------
                  HL-Gap            0.1066957 Eh            2.9033 eV
             Fermi-level           -0.3117381 Eh           -8.4828 eV

 SCC (total)                   0 d,  0 h,  0 min,  0.268 sec
 SCC setup                      ...        0 min,  0.009 sec (  3.315%)
 Dispersion                     ...        0 min,  0.002 sec (  0.641%)
 classical contributions        ...        0 min,  0.001 sec (  0.225%)
 integral evaluation            ...        0 min,  0.027 sec ( 10.178%)
 iterations                     ...        0 min,  0.204 sec ( 76.225%)
 molecular gradient             ...        0 min,  0.024 sec (  9.126%)
 printout                       ...        0 min,  0.001 sec (  0.206%)

         :::::::::::::::::::::::::::::::::::::::::::::::::::::
         ::                     SUMMARY                     ::
         :::::::::::::::::::::::::::::::::::::::::::::::::::::
         :: total energy             -64.634236184730 Eh    ::
         :: gradient norm              0.090307684318 Eh/a0 ::
         :: HOMO-LUMO gap              2.903338502428 eV    ::
         ::.................................................::
         :: SCC energy               -65.438097259384 Eh    ::
         :: -> isotropic ES            0.087717890475 Eh    ::
         :: -> anisotropic ES          0.009870732123 Eh    ::
         :: -> anisotropic XC          0.023320523658 Eh    ::
         :: -> dispersion             -0.037194980108 Eh    ::
         :: repulsion energy           0.803847256195 Eh    ::
         :: add. restraining           0.000000000000 Eh    ::
         :: total charge              -0.000000000000 e     ::
         :::::::::::::::::::::::::::::::::::::::::::::::::::::

           -------------------------------------------------
          |                Property Printout                |
           -------------------------------------------------

    * Orbital Energies and Occupations

         #    Occupation            Energy/Eh            Energy/eV
      -------------------------------------------------------------
         1        2.0000           -0.8102243             -22.0473
       ...           ...                  ...                  ...
        45        2.0000           -0.4674972             -12.7212
        46        2.0000           -0.4599248             -12.5152
        47        2.0000           -0.4513595             -12.2821
        48        2.0000           -0.4405147             -11.9870
        49        2.0000           -0.4266212             -11.6090
        50        2.0000           -0.4262994             -11.6002
        51        2.0000           -0.4191508             -11.4057
        52        2.0000           -0.4138327             -11.2610
        53        2.0000           -0.4043972             -11.0042
        54        2.0000           -0.3931789             -10.6989
        55        2.0000           -0.3911798             -10.6445
        56        2.0000           -0.3695330             -10.0555
        57        2.0000           -0.3650860              -9.9345 (HOMO)
        58                         -0.2583902              -7.0312 (LUMO)
        59                         -0.2296954              -6.2503
        60                         -0.2280773              -6.2063
        61                         -0.2091072              -5.6901
        62                         -0.1964500              -5.3457
        63                         -0.1054318              -2.8689
        64                         -0.0948344              -2.5806
        65                         -0.0300984              -0.8190
        66                         -0.0121366              -0.3303
        67                          0.0195729               0.5326
        68                          0.0301383               0.8201
       ...                                ...                  ...
       102                          0.6679263              18.1752
      -------------------------------------------------------------
                  HL-Gap            0.1066957 Eh            2.9033 eV
             Fermi-level           -0.3117381 Eh           -8.4828 eV

     #   Z          covCN         q      C6AA      α(0)
     1   6 C        2.871     0.128    25.183     8.226
     2   7 N        2.779    -0.127    23.763     7.240
     3   8 O        1.705    -0.273    18.531     5.812
     4   6 C        2.913    -0.070    29.750     8.944
     5   7 N        1.888    -0.277    28.035     7.849
     6   8 O        1.706    -0.267    18.431     5.796
     7   6 C        2.915    -0.072    29.783     8.949
     8   7 N        1.849    -0.306    28.792     7.953
     9   6 C        2.855     0.134    25.074     8.207
    10   7 N        1.834    -0.280    28.106     7.856
    11   6 C        2.918    -0.060    29.497     8.906
    12   7 N        2.644    -0.239    26.249     7.609
    13   6 C        2.967    -0.004    28.114     8.697
    14   6 C        3.636     0.038    20.301     6.483
    15   6 C        3.810    -0.069    21.819     6.649
    16   6 C        3.196     0.152    24.242     8.027
    17   6 C        3.083    -0.017    28.338     8.727
    18   6 C        3.263     0.162    23.438     7.818
    19   6 C        2.877     0.168    24.386     8.095
    20   6 C        2.800     0.330    21.396     7.578
    21   6 C        3.643     0.035    20.326     6.481
    22   9 F        0.792    -0.190    11.130     3.941
    23   1 H        0.860     0.164     1.308     1.792
    24   1 H        0.925     0.041     2.433     2.439
    25   1 H        0.925     0.040     2.451     2.448
    26   1 H        0.925     0.049     2.332     2.388
    27   1 H        0.859     0.198     1.116     1.655
    28   1 H        0.860     0.177     1.229     1.737
    29   1 H        0.923     0.037     2.484     2.465
    30   1 H        0.925     0.063     2.163     2.300
    31   1 H        0.924     0.041     2.432     2.439
    32   1 H        0.924     0.093     1.848     2.126
    33   1 H        0.923     0.051     2.305     2.374
    34   1 H        0.924     0.045     2.386     2.416
    35   1 H        0.924     0.063     2.167     2.302
    36   1 H        0.923     0.041     2.438     2.442

 Mol. C6AA /au·bohr⁶  :      16286.062898
 Mol. C8AA /au·bohr⁸  :     383274.668525
 Mol. α(0) /au        :        197.166678


Wiberg/Mayer (AO) data.
largest (>0.10) Wiberg bond orders for each atom

 ---------------------------------------------------------------------------
     #   Z sym  total        # sym  WBO       # sym  WBO       # sym  WBO
 ---------------------------------------------------------------------------
     1   6 C    3.936 --     4 C    1.409    13 C    1.285     6 O    1.064
     2   7 N    3.532 --    16 C    1.218    17 C    1.131    23 H    0.940
                             5 N    0.106
     3   8 O    2.216 --     9 C    1.054    14 C    0.985
     4   6 C    3.986 --     1 C    1.409     7 C    1.408    24 H    0.964
     5   7 N    3.018 --    16 C    1.538    18 C    1.225     2 N    0.106
     6   8 O    2.226 --     1 C    1.064    21 C    0.980
     7   6 C    3.986 --     4 C    1.408     9 C    1.391    25 H    0.967
                            13 C    0.105
     8   7 N    3.034 --    19 C    1.356    20 C    1.332
     9   6 C    3.935 --     7 C    1.391    11 C    1.332     3 O    1.054
    10   7 N    3.042 --    20 C    1.460    18 C    1.257
    11   6 C    3.986 --    13 C    1.475     9 C    1.332    26 H    0.964
    12   7 N    3.365 --    19 C    1.247    28 H    0.950    27 H    0.939
    13   6 C    3.979 --    11 C    1.475     1 C    1.285    15 C    0.989
                             7 C    0.105
    14   6 C    3.946 --     3 O    0.985    30 H    0.979    31 H    0.977
                            29 H    0.977
    15   6 C    3.991 --    16 C    1.020    13 C    0.989    33 H    0.953
                            32 H    0.949
    16   6 C    3.955 --     5 N    1.538     2 N    1.218    15 C    1.020
    17   6 C    3.941 --    18 C    1.306    19 C    1.216     2 N    1.131
    18   6 C    3.976 --    17 C    1.306    10 N    1.257     5 N    1.225
    19   6 C    3.971 --     8 N    1.356    12 N    1.247    17 C    1.216
    20   6 C    3.903 --    10 N    1.460     8 N    1.332    22 F    0.983
    21   6 C    3.944 --     6 O    0.980    35 H    0.979    34 H    0.977
                            36 H    0.976
    22   9 F    1.142 --    20 C    0.983
    23   1 H    0.973 --     2 N    0.940
    24   1 H    0.998 --     4 C    0.964
    25   1 H    0.998 --     7 C    0.967
    26   1 H    0.997 --    11 C    0.964
    27   1 H    0.960 --    12 N    0.939
    28   1 H    0.968 --    12 N    0.950
    29   1 H    0.998 --    14 C    0.977
    30   1 H    0.996 --    14 C    0.979
    31   1 H    0.998 --    14 C    0.977
    32   1 H    0.990 --    15 C    0.949
    33   1 H    0.996 --    15 C    0.953
    34   1 H    0.998 --    21 C    0.977
    35   1 H    0.996 --    21 C    0.979
    36   1 H    0.998 --    21 C    0.976
 ---------------------------------------------------------------------------

Topologies differ in total number of bonds
Writing topology from bond orders to xtbtopo.mol

molecular dipole:
                 x           y           z       tot (Debye)
 q only:        0.724       1.181      -2.728
   full:        0.685       1.570      -3.562      10.046
molecular quadrupole (traceless):
                xx          xy          yy          xz          yz          zz
 q only:      129.428      26.208     172.447      52.143       8.201    -301.875
  q+dip:      165.573      30.504     226.641      49.334      11.983    -392.215
   full:      163.594      31.022     227.968      49.574      12.660    -391.562


           -------------------------------------------------
          | TOTAL ENERGY              -64.634236184730 Eh   |
          | GRADIENT NORM               0.090307684318 Eh/α |
          | HOMO-LUMO GAP               2.903338502428 eV   |
           -------------------------------------------------

------------------------------------------------------------------------
 * finished run on 2024/01/03 at 10:08:42.308     
------------------------------------------------------------------------
 total:
 * wall-time:     0 d,  0 h,  0 min,  0.366 sec
 *  cpu-time:     0 d,  0 h,  0 min,  5.168 sec
 * ratio c/w:    14.137 speedup
 SCF:
 * wall-time:     0 d,  0 h,  0 min,  0.268 sec
 *  cpu-time:     0 d,  0 h,  0 min,  3.858 sec
 * ratio c/w:    14.384 speedup

