      -----------------------------------------------------------      
     |                   =====================                   |     
     |                           x T B                           |     
     |                   =====================                   |     
     |                         S. Grimme                         |     
     |          Mulliken Center for Theoretical Chemistry        |     
     |                    University of Bonn                     |     
      -----------------------------------------------------------      

   * xtb version 6.6.0 (2ccbbd7) compiled by 'conda@6fe65c42fc39' on 2023-02-10

   xtb is free software: you can redistribute it and/or modify it under
   the terms of the GNU Lesser General Public License as published by
   the Free Software Foundation, either version 3 of the License, or
   (at your option) any later version.
   
   xtb is distributed in the hope that it will be useful,
   but WITHOUT ANY WARRANTY; without even the implied warranty of
   MERCHANTABILITY or FITNESS FOR A PARTICULAR PURPOSE.  See the
   GNU Lesser General Public License for more details.
   
   Cite this work as:
   * C. Bannwarth, E. Caldeweyher, S. Ehlert, A. Hansen, P. Pracht,
     J. Seibert, S. Spicher, S. Grimme, WIREs Comput. Mol. Sci., 2020, 11,
     e01493. DOI: 10.1002/wcms.1493
   
   for GFN2-xTB:
   * C. Bannwarth, S. Ehlert and S. Grimme., J. Chem. Theory Comput., 2019,
     15, 1652-1671. DOI: 10.1021/acs.jctc.8b01176
   for GFN1-xTB:
   * S. Grimme, C. Bannwarth, P. Shushkov, J. Chem. Theory Comput., 2017,
     13, 1989-2009. DOI: 10.1021/acs.jctc.7b00118
   for GFN0-xTB:
   * P. Pracht, E. Caldeweyher, S. Ehlert, S. Grimme, ChemRxiv, 2019, preprint.
     DOI: 10.26434/chemrxiv.8326202.v1
   for GFN-FF:
   * S. Spicher and S. Grimme, Angew. Chem. Int. Ed., 2020, 59, 15665-15673.
     DOI: 10.1002/anie.202004239
   
   for ALPB and GBSA implicit solvation:
   * S. Ehlert, M. Stahn, S. Spicher, S. Grimme, J. Chem. Theory Comput.,
     2021, 17, 4250-4261. DOI: 10.1021/acs.jctc.1c00471
   
   for DFT-D4:
   * E. Caldeweyher, C. Bannwarth and S. Grimme, J. Chem. Phys., 2017,
     147, 034112. DOI: 10.1063/1.4993215
   * E. Caldeweyher, S. Ehlert, A. Hansen, H. Neugebauer, S. Spicher,
     C. Bannwarth and S. Grimme, J. Chem. Phys., 2019, 150, 154122.
     DOI: 10.1063/1.5090222
   * E. Caldeweyher, J.-M. Mewes, S. Ehlert and S. Grimme, Phys. Chem. Chem. Phys.
     2020, 22, 8499-8512. DOI: 10.1039/D0CP00502A
   
   for sTDA-xTB:
   * S. Grimme and C. Bannwarth, J. Chem. Phys., 2016, 145, 054103.
     DOI: 10.1063/1.4959605
   
   in the mass-spec context:
   * V. Asgeirsson, C. Bauer and S. Grimme, Chem. Sci., 2017, 8, 4879.
     DOI: 10.1039/c7sc00601b
   * J. Koopman and S. Grimme, ACS Omega 2019, 4, 12, 15120-15133.
     DOI: 10.1021/acsomega.9b02011
   
   for metadynamics refer to:
   * S. Grimme, J. Chem. Theory Comput., 2019, 155, 2847-2862
     DOI: 10.1021/acs.jctc.9b00143
   
   for SPH calculations refer to:
   * S. Spicher and S. Grimme, J. Chem. Theory Comput., 2021, 17, 1701-1714
     DOI: 10.1021/acs.jctc.0c01306
   
   with help from (in alphabetical order)
   P. Atkinson, C. Bannwarth, F. Bohle, G. Brandenburg, E. Caldeweyher
   M. Checinski, S. Dohm, S. Ehlert, S. Ehrlich, I. Gerasimov, C. Hölzer
   A. Katbashev, J. Koopman, C. Lavigne, S. Lehtola, F. März, M. Müller,
   F. Musil, H. Neugebauer, J. Pisarek, C. Plett, P. Pracht, F. Pultar,
   J. Seibert, P. Shushkov, S. Spicher, M. Stahn, M. Steiner, T. Strunk,
   J. Stückrath, T. Rose, and J. Unsleber
   
 * started run on 2024/01/09 at 16:58:23.789     

           -------------------------------------------------
          |                Calculation Setup                |
           -------------------------------------------------

          program call               : xtb gau_xtb.xyz --chrg 1 --uhf 0 --grad
          hostname                   : node32
          coordinate file            : gau_xtb.xyz
          omp threads                :                    12

   ID    Z sym.   atoms
    1    6 C      1-4, 6-21, 23-26, 28, 29
    2    8 O      5, 22
    3    7 N      27
    4    1 H      30-59

           -------------------------------------------------
          |                 G F N 2 - x T B                 |
           -------------------------------------------------

        Reference                      10.1021/acs.jctc.8b01176
      * Hamiltonian:
        H0-scaling (s, p, d)           1.850000    2.230000    2.230000
        zeta-weighting                 0.500000
      * Dispersion:
        s8                             2.700000
        a1                             0.520000
        a2                             5.000000
        s9                             5.000000
      * Repulsion:
        kExp                           1.500000    1.000000
        rExp                           1.000000
      * Coulomb:
        alpha                          2.000000
        third order                    shell-resolved
        anisotropic                    true
        a3                             3.000000
        a5                             4.000000
        cn-shift                       1.200000
        cn-exp                         4.000000
        max-rad                        5.000000


          ...................................................
          :                      SETUP                      :
          :.................................................:
          :  # basis functions                 146          :
          :  # atomic orbitals                 146          :
          :  # shells                           88          :
          :  # electrons                       150          :
          :  max. iterations                   250          :
          :  Hamiltonian                  GFN2-xTB          :
          :  restarted?                      false          :
          :  GBSA solvation                  false          :
          :  PC potential                    false          :
          :  electronic temp.          300.0000000     K    :
          :  accuracy                    1.0000000          :
          :  -> integral cutoff          0.2500000E+02      :
          :  -> integral neglect         0.1000000E-07      :
          :  -> SCF convergence          0.1000000E-05 Eh   :
          :  -> wf. convergence          0.1000000E-03 e    :
          :  Broyden damping             0.4000000          :
          ...................................................

 iter      E             dE          RMSdq      gap      omega  full diag
   1    -82.7012204 -0.827012E+02  0.405E+00    3.37       0.0  T
   2    -82.8503598 -0.149139E+00  0.252E+00    3.25       1.0  T
   3    -82.8415936  0.876615E-02  0.109E+00    3.13       1.0  T
   4    -82.8454352 -0.384157E-02  0.520E-01    3.04       1.0  T
   5    -82.8610772 -0.156420E-01  0.142E-01    3.05       1.0  T
   6    -82.8617067 -0.629449E-03  0.650E-02    3.06       1.0  T
   7    -82.8617729 -0.662504E-04  0.285E-02    3.07       1.0  T
   8    -82.8617860 -0.130389E-04  0.107E-02    3.07       1.2  T
   9    -82.8617901 -0.412590E-05  0.390E-03    3.07       3.3  T
  10    -82.8617903 -0.213839E-06  0.173E-03    3.07       7.5  T
  11    -82.8617904 -0.903473E-07  0.632E-04    3.07      20.6  T
  12    -82.8617904 -0.723104E-08  0.250E-04    3.07      52.1  T

   *** convergence criteria satisfied after 12 iterations ***

         #    Occupation            Energy/Eh            Energy/eV
      -------------------------------------------------------------
         1        2.0000           -0.8715077             -23.7149
       ...           ...                  ...                  ...
        69        2.0000           -0.4777832             -13.0011
        70        2.0000           -0.4676598             -12.7257
        71        2.0000           -0.4613271             -12.5533
        72        2.0000           -0.4579717             -12.4620
        73        2.0000           -0.4563175             -12.4170
        74        2.0000           -0.4482548             -12.1976
        75        2.0000           -0.4289354             -11.6719 (HOMO)
        76                         -0.3162673              -8.6061 (LUMO)
        77                         -0.3119615              -8.4889
        78                         -0.2910704              -7.9204
        79                         -0.2849003              -7.7525
        80                         -0.2798976              -7.6164
       ...                                ...                  ...
       146                          0.5952011              16.1962
      -------------------------------------------------------------
                  HL-Gap            0.1126681 Eh            3.0659 eV
             Fermi-level           -0.3726014 Eh          -10.1390 eV

 SCC (total)                   0 d,  0 h,  0 min,  0.432 sec
 SCC setup                      ...        0 min,  0.001 sec (  0.160%)
 Dispersion                     ...        0 min,  0.002 sec (  0.478%)
 classical contributions        ...        0 min,  0.002 sec (  0.401%)
 integral evaluation            ...        0 min,  0.019 sec (  4.346%)
 iterations                     ...        0 min,  0.365 sec ( 84.572%)
 molecular gradient             ...        0 min,  0.042 sec (  9.832%)
 printout                       ...        0 min,  0.001 sec (  0.164%)

         :::::::::::::::::::::::::::::::::::::::::::::::::::::
         ::                     SUMMARY                     ::
         :::::::::::::::::::::::::::::::::::::::::::::::::::::
         :: total energy             -81.567778711307 Eh    ::
         :: gradient norm              0.068633150581 Eh/a0 ::
         :: HOMO-LUMO gap              3.065854781704 eV    ::
         ::.................................................::
         :: SCC energy               -82.861790400003 Eh    ::
         :: -> isotropic ES            0.125278567478 Eh    ::
         :: -> anisotropic ES         -0.000040620989 Eh    ::
         :: -> anisotropic XC          0.044475768680 Eh    ::
         :: -> dispersion             -0.063538643233 Eh    ::
         :: repulsion energy           1.293244836753 Eh    ::
         :: add. restraining           0.000000000000 Eh    ::
         :: total charge               1.000000000000 e     ::
         :::::::::::::::::::::::::::::::::::::::::::::::::::::

           -------------------------------------------------
          |                Property Printout                |
           -------------------------------------------------

    * Orbital Energies and Occupations

         #    Occupation            Energy/Eh            Energy/eV
      -------------------------------------------------------------
         1        2.0000           -0.8715077             -23.7149
       ...           ...                  ...                  ...
        63        2.0000           -0.5006152             -13.6224
        64        2.0000           -0.4941259             -13.4459
        65        2.0000           -0.4894318             -13.3181
        66        2.0000           -0.4878483             -13.2750
        67        2.0000           -0.4837119             -13.1625
        68        2.0000           -0.4795949             -13.0504
        69        2.0000           -0.4777832             -13.0011
        70        2.0000           -0.4676598             -12.7257
        71        2.0000           -0.4613271             -12.5533
        72        2.0000           -0.4579717             -12.4620
        73        2.0000           -0.4563175             -12.4170
        74        2.0000           -0.4482548             -12.1976
        75        2.0000           -0.4289354             -11.6719 (HOMO)
        76                         -0.3162673              -8.6061 (LUMO)
        77                         -0.3119615              -8.4889
        78                         -0.2910704              -7.9204
        79                         -0.2849003              -7.7525
        80                         -0.2798976              -7.6164
        81                         -0.2739913              -7.4557
        82                         -0.2678073              -7.2874
        83                         -0.2440975              -6.6422
        84                         -0.1948907              -5.3032
        85                         -0.1823203              -4.9612
        86                         -0.1758366              -4.7848
       ...                                ...                  ...
       146                          0.5952011              16.1962
      -------------------------------------------------------------
                  HL-Gap            0.1126681 Eh            3.0659 eV
             Fermi-level           -0.3726014 Eh          -10.1390 eV

     #   Z          covCN         q      C6AA      α(0)
     1   6 C        2.966     0.001    27.996     8.679
     2   6 C        2.919    -0.037    28.922     8.819
     3   6 C        2.907    -0.055    29.370     8.886
     4   6 C        2.842     0.145    24.836     8.167
     5   8 O        1.660    -0.391    20.676     6.138
     6   6 C        2.911    -0.070    29.745     8.943
     7   6 C        2.923    -0.034    28.837     8.806
     8   6 C        2.957    -0.013    28.342     8.732
     9   6 C        2.952     0.003    27.953     8.672
    10   6 C        3.802    -0.056    21.582     6.614
    11   6 C        3.748    -0.097    22.420     6.753
    12   6 C        2.969     0.011    27.771     8.644
    13   6 C        2.917    -0.034    28.853     8.808
    14   6 C        2.913    -0.031    28.764     8.794
    15   6 C        2.915    -0.032    28.795     8.799
    16   6 C        2.912    -0.030    28.751     8.793
    17   6 C        2.918    -0.034    28.850     8.808
    18   6 C        2.966     0.019    27.587     8.615
    19   6 C        2.925    -0.032    28.810     8.802
    20   6 C        2.910    -0.055    29.365     8.886
    21   6 C        2.856     0.123    25.294     8.243
    22   8 O        1.704    -0.311    19.194     5.915
    23   6 C        2.916    -0.060    29.501     8.907
    24   6 C        2.920    -0.030    28.739     8.791
    25   6 C        3.692     0.071    19.565     6.329
    26   6 C        3.741    -0.040    21.358     6.594
    27   7 N        3.566     0.044    20.465     6.719
    28   6 C        3.685    -0.095    22.533     6.796
    29   6 C        3.696    -0.099    22.564     6.795
    30   1 H        0.805     0.305     0.707     1.320
    31   1 H        0.925     0.027     2.625     2.534
    32   1 H        0.925     0.052     2.300     2.372
    33   1 H        0.859     0.232     0.955     1.531
    34   1 H        0.925     0.034     2.528     2.486
    35   1 H        0.925     0.038     2.470     2.458
    36   1 H        0.925     0.048     2.346     2.395
    37   1 H        0.925     0.041     2.434     2.440
    38   1 H        0.924     0.034     2.525     2.485
    39   1 H        0.924     0.041     2.432     2.439
    40   1 H        0.924     0.038     2.470     2.458
    41   1 H        0.925     0.027     2.632     2.537
    42   1 H        0.925     0.033     2.542     2.493
    43   1 H        0.925     0.033     2.538     2.491
    44   1 H        0.925     0.034     2.537     2.491
    45   1 H        0.925     0.028     2.618     2.530
    46   1 H        0.926     0.050     2.318     2.381
    47   1 H        0.925     0.038     2.475     2.460
    48   1 H        0.926     0.031     2.575     2.509
    49   1 H        0.926     0.049     2.337     2.391
    50   1 H        0.925     0.075     2.036     2.232
    51   1 H        0.924     0.054     2.277     2.360
    52   1 H        0.925     0.108     1.712     2.046
    53   1 H        0.925     0.101     1.775     2.083
    54   1 H        0.925     0.100     1.789     2.092
    55   1 H        0.926     0.135     1.496     1.912
    56   1 H        0.924     0.106     1.727     2.055
    57   1 H        0.925     0.110     1.697     2.037
    58   1 H        0.925     0.108     1.710     2.045
    59   1 H        0.925     0.108     1.711     2.046

 Mol. C6AA /au·bohr⁶  :      36523.081685
 Mol. C8AA /au·bohr⁸  :     872717.219036
 Mol. α(0) /au        :        301.357674


Wiberg/Mayer (AO) data.
largest (>0.10) Wiberg bond orders for each atom

 ---------------------------------------------------------------------------
     #   Z sym  total        # sym  WBO       # sym  WBO       # sym  WBO
 ---------------------------------------------------------------------------
     1   6 C    3.986 --     7 C    1.394     2 C    1.384     8 C    1.015
     2   6 C    3.988 --     3 C    1.460     1 C    1.384    31 H    0.972
                             6 C    0.106
     3   6 C    3.986 --     2 C    1.460     4 C    1.361    32 H    0.968
                             7 C    0.105
     4   6 C    3.937 --     6 C    1.372     3 C    1.361     5 O    1.075
     5   8 O    2.116 --     4 C    1.075    30 H    0.885
     6   6 C    3.987 --     7 C    1.450     4 C    1.372    34 H    0.966
                             2 C    0.106
     7   6 C    3.989 --     6 C    1.450     1 C    1.394    35 H    0.968
                             3 C    0.105
     8   6 C    3.980 --     9 C    1.781    18 C    1.018     1 C    1.015
     9   6 C    3.980 --     8 C    1.781    12 C    1.018    10 C    0.998
    10   6 C    3.994 --    11 C    1.004     9 C    0.998    37 H    0.973
                            36 H    0.960
    11   6 C    3.993 --    10 C    1.004    40 H    0.988    38 H    0.987
                            39 H    0.986
    12   6 C    3.986 --    17 C    1.399    13 C    1.392     9 C    1.018
                            15 C    0.109
    13   6 C    3.988 --    14 C    1.453    12 C    1.392    41 H    0.969
                            16 C    0.109
    14   6 C    3.991 --    13 C    1.453    15 C    1.429    42 H    0.971
                            17 C    0.110
    15   6 C    3.989 --    16 C    1.444    14 C    1.429    43 H    0.971
                            12 C    0.109
    16   6 C    3.991 --    15 C    1.444    17 C    1.441    44 H    0.970
                            13 C    0.109
    17   6 C    3.989 --    16 C    1.441    12 C    1.399    45 H    0.971
                            14 C    0.110
    18   6 C    3.984 --    24 C    1.406    19 C    1.374     8 C    1.018
    19   6 C    3.987 --    20 C    1.461    18 C    1.374    46 H    0.968
                            23 C    0.108
    20   6 C    3.986 --    19 C    1.461    21 C    1.375    47 H    0.968
                            24 C    0.103
    21   6 C    3.916 --    23 C    1.396    20 C    1.375    22 O    0.984
    22   8 O    2.130 --    21 C    0.984    25 C    0.980
    23   6 C    3.989 --    24 C    1.439    21 C    1.396    48 H    0.963
                            19 C    0.108
    24   6 C    3.988 --    23 C    1.439    18 C    1.406    49 H    0.969
                            20 C    0.103
    25   6 C    3.959 --    26 C    1.014    22 O    0.980    51 H    0.958
                            50 H    0.951
    26   6 C    3.925 --    25 C    1.014    52 H    0.967    53 H    0.964
                            27 N    0.924
    27   7 N    3.770 --    29 C    0.957    28 C    0.943    33 H    0.924
                            26 C    0.924
    28   6 C    3.901 --    54 H    0.976    56 H    0.975    55 H    0.964
                            27 N    0.943
    29   6 C    3.913 --    58 H    0.976    57 H    0.975    59 H    0.974
                            27 N    0.957
    30   1 H    0.907 --     5 O    0.885
    31   1 H    0.999 --     2 C    0.972
    32   1 H    0.997 --     3 C    0.968
    33   1 H    0.946 --    27 N    0.924
    34   1 H    0.998 --     6 C    0.966
    35   1 H    0.998 --     7 C    0.968
    36   1 H    0.996 --    10 C    0.960
    37   1 H    0.998 --    10 C    0.973
    38   1 H    0.999 --    11 C    0.987
    39   1 H    0.998 --    11 C    0.986
    40   1 H    0.998 --    11 C    0.988
    41   1 H    0.999 --    13 C    0.969
    42   1 H    0.998 --    14 C    0.971
    43   1 H    0.998 --    15 C    0.971
    44   1 H    0.998 --    16 C    0.970
    45   1 H    0.999 --    17 C    0.971
    46   1 H    0.997 --    19 C    0.968
    47   1 H    0.998 --    20 C    0.968
    48   1 H    0.998 --    23 C    0.963
    49   1 H    0.998 --    24 C    0.969
    50   1 H    0.994 --    25 C    0.951
    51   1 H    0.997 --    25 C    0.958
    52   1 H    0.988 --    26 C    0.967
    53   1 H    0.989 --    26 C    0.964
    54   1 H    0.990 --    28 C    0.976
    55   1 H    0.982 --    28 C    0.964
    56   1 H    0.989 --    28 C    0.975
    57   1 H    0.988 --    29 C    0.975
    58   1 H    0.988 --    29 C    0.976
    59   1 H    0.988 --    29 C    0.974
 ---------------------------------------------------------------------------

Topologies differ in total number of bonds
Writing topology from bond orders to xtbtopo.mol

molecular dipole:
                 x           y           z       tot (Debye)
 q only:       93.442     -61.775    -169.153
   full:       93.214     -61.938    -169.130     515.480
molecular quadrupole (traceless):
                xx          xy          yy          xz          yz          zz
 q only:    -7491.882   -8672.685  -14871.162  -23697.149   15652.503   22363.045
  q+dip:    -7535.423   -8681.298  -14826.052  -23631.544   15691.956   22361.476
   full:    -7537.108   -8679.650  -14827.302  -23631.877   15691.034   22364.410


           -------------------------------------------------
          | TOTAL ENERGY              -81.567778711307 Eh   |
          | GRADIENT NORM               0.068633150581 Eh/α |
          | HOMO-LUMO GAP               3.065854781704 eV   |
           -------------------------------------------------

------------------------------------------------------------------------
 * finished run on 2024/01/09 at 16:58:24.485     
------------------------------------------------------------------------
 total:
 * wall-time:     0 d,  0 h,  0 min,  0.696 sec
 *  cpu-time:     0 d,  0 h,  0 min,  8.125 sec
 * ratio c/w:    11.667 speedup
 SCF:
 * wall-time:     0 d,  0 h,  0 min,  0.433 sec
 *  cpu-time:     0 d,  0 h,  0 min,  5.397 sec
 * ratio c/w:    12.476 speedup

