      -----------------------------------------------------------      
     |                   =====================                   |     
     |                           x T B                           |     
     |                   =====================                   |     
     |                         S. Grimme                         |     
     |          Mulliken Center for Theoretical Chemistry        |     
     |                    University of Bonn                     |     
      -----------------------------------------------------------      

   * xtb version 6.6.0 (2ccbbd7) compiled by 'conda@6fe65c42fc39' on 2023-02-10

   xtb is free software: you can redistribute it and/or modify it under
   the terms of the GNU Lesser General Public License as published by
   the Free Software Foundation, either version 3 of the License, or
   (at your option) any later version.
   
   xtb is distributed in the hope that it will be useful,
   but WITHOUT ANY WARRANTY; without even the implied warranty of
   MERCHANTABILITY or FITNESS FOR A PARTICULAR PURPOSE.  See the
   GNU Lesser General Public License for more details.
   
   Cite this work as:
   * C. Bannwarth, E. Caldeweyher, S. Ehlert, A. Hansen, P. Pracht,
     J. Seibert, S. Spicher, S. Grimme, WIREs Comput. Mol. Sci., 2020, 11,
     e01493. DOI: 10.1002/wcms.1493
   
   for GFN2-xTB:
   * C. Bannwarth, S. Ehlert and S. Grimme., J. Chem. Theory Comput., 2019,
     15, 1652-1671. DOI: 10.1021/acs.jctc.8b01176
   for GFN1-xTB:
   * S. Grimme, C. Bannwarth, P. Shushkov, J. Chem. Theory Comput., 2017,
     13, 1989-2009. DOI: 10.1021/acs.jctc.7b00118
   for GFN0-xTB:
   * P. Pracht, E. Caldeweyher, S. Ehlert, S. Grimme, ChemRxiv, 2019, preprint.
     DOI: 10.26434/chemrxiv.8326202.v1
   for GFN-FF:
   * S. Spicher and S. Grimme, Angew. Chem. Int. Ed., 2020, 59, 15665-15673.
     DOI: 10.1002/anie.202004239
   
   for ALPB and GBSA implicit solvation:
   * S. Ehlert, M. Stahn, S. Spicher, S. Grimme, J. Chem. Theory Comput.,
     2021, 17, 4250-4261. DOI: 10.1021/acs.jctc.1c00471
   
   for DFT-D4:
   * E. Caldeweyher, C. Bannwarth and S. Grimme, J. Chem. Phys., 2017,
     147, 034112. DOI: 10.1063/1.4993215
   * E. Caldeweyher, S. Ehlert, A. Hansen, H. Neugebauer, S. Spicher,
     C. Bannwarth and S. Grimme, J. Chem. Phys., 2019, 150, 154122.
     DOI: 10.1063/1.5090222
   * E. Caldeweyher, J.-M. Mewes, S. Ehlert and S. Grimme, Phys. Chem. Chem. Phys.
     2020, 22, 8499-8512. DOI: 10.1039/D0CP00502A
   
   for sTDA-xTB:
   * S. Grimme and C. Bannwarth, J. Chem. Phys., 2016, 145, 054103.
     DOI: 10.1063/1.4959605
   
   in the mass-spec context:
   * V. Asgeirsson, C. Bauer and S. Grimme, Chem. Sci., 2017, 8, 4879.
     DOI: 10.1039/c7sc00601b
   * J. Koopman and S. Grimme, ACS Omega 2019, 4, 12, 15120-15133.
     DOI: 10.1021/acsomega.9b02011
   
   for metadynamics refer to:
   * S. Grimme, J. Chem. Theory Comput., 2019, 155, 2847-2862
     DOI: 10.1021/acs.jctc.9b00143
   
   for SPH calculations refer to:
   * S. Spicher and S. Grimme, J. Chem. Theory Comput., 2021, 17, 1701-1714
     DOI: 10.1021/acs.jctc.0c01306
   
   with help from (in alphabetical order)
   P. Atkinson, C. Bannwarth, F. Bohle, G. Brandenburg, E. Caldeweyher
   M. Checinski, S. Dohm, S. Ehlert, S. Ehrlich, I. Gerasimov, C. Hölzer
   A. Katbashev, J. Koopman, C. Lavigne, S. Lehtola, F. März, M. Müller,
   F. Musil, H. Neugebauer, J. Pisarek, C. Plett, P. Pracht, F. Pultar,
   J. Seibert, P. Shushkov, S. Spicher, M. Stahn, M. Steiner, T. Strunk,
   J. Stückrath, T. Rose, and J. Unsleber
   
 * started run on 2024/01/09 at 19:34:15.914     

           -------------------------------------------------
          |                Calculation Setup                |
           -------------------------------------------------

          program call               : xtb gau_xtb.xyz --chrg 1 --uhf 0 --grad
          hostname                   : node28
          coordinate file            : gau_xtb.xyz
          omp threads                :                    12

   ID    Z sym.   atoms
    1    6 C      1-4, 6-21, 23-26, 28, 29
    2    8 O      5, 22
    3    7 N      27
    4    1 H      30-59

           -------------------------------------------------
          |                 G F N 2 - x T B                 |
           -------------------------------------------------

        Reference                      10.1021/acs.jctc.8b01176
      * Hamiltonian:
        H0-scaling (s, p, d)           1.850000    2.230000    2.230000
        zeta-weighting                 0.500000
      * Dispersion:
        s8                             2.700000
        a1                             0.520000
        a2                             5.000000
        s9                             5.000000
      * Repulsion:
        kExp                           1.500000    1.000000
        rExp                           1.000000
      * Coulomb:
        alpha                          2.000000
        third order                    shell-resolved
        anisotropic                    true
        a3                             3.000000
        a5                             4.000000
        cn-shift                       1.200000
        cn-exp                         4.000000
        max-rad                        5.000000


          ...................................................
          :                      SETUP                      :
          :.................................................:
          :  # basis functions                 146          :
          :  # atomic orbitals                 146          :
          :  # shells                           88          :
          :  # electrons                       150          :
          :  max. iterations                   250          :
          :  Hamiltonian                  GFN2-xTB          :
          :  restarted?                      false          :
          :  GBSA solvation                  false          :
          :  PC potential                    false          :
          :  electronic temp.          300.0000000     K    :
          :  accuracy                    1.0000000          :
          :  -> integral cutoff          0.2500000E+02      :
          :  -> integral neglect         0.1000000E-07      :
          :  -> SCF convergence          0.1000000E-05 Eh   :
          :  -> wf. convergence          0.1000000E-03 e    :
          :  Broyden damping             0.4000000          :
          ...................................................

 iter      E             dE          RMSdq      gap      omega  full diag
   1    -82.6902603 -0.826903E+02  0.405E+00    3.35       0.0  T
   2    -82.8414747 -0.151214E+00  0.253E+00    3.24       1.0  T
   3    -82.8323110  0.916366E-02  0.110E+00    3.12       1.0  T
   4    -82.8362120 -0.390101E-02  0.529E-01    3.04       1.0  T
   5    -82.8523828 -0.161708E-01  0.146E-01    3.05       1.0  T
   6    -82.8530734 -0.690595E-03  0.653E-02    3.06       1.0  T
   7    -82.8531339 -0.605213E-04  0.278E-02    3.06       1.0  T
   8    -82.8531473 -0.134064E-04  0.108E-02    3.06       1.2  T
   9    -82.8531513 -0.398049E-05  0.392E-03    3.06       3.3  T
  10    -82.8531515 -0.232463E-06  0.175E-03    3.06       7.4  T
  11    -82.8531516 -0.920180E-07  0.626E-04    3.06      20.8  T
  12    -82.8531516 -0.661140E-08  0.257E-04    3.06      50.7  T

   *** convergence criteria satisfied after 12 iterations ***

         #    Occupation            Energy/Eh            Energy/eV
      -------------------------------------------------------------
         1        2.0000           -0.8730542             -23.7570
       ...           ...                  ...                  ...
        69        2.0000           -0.4774602             -12.9924
        70        2.0000           -0.4670583             -12.7093
        71        2.0000           -0.4608357             -12.5400
        72        2.0000           -0.4578631             -12.4591
        73        2.0000           -0.4560089             -12.4086
        74        2.0000           -0.4473408             -12.1728
        75        2.0000           -0.4279893             -11.6462 (HOMO)
        76                         -0.3154149              -8.5829 (LUMO)
        77                         -0.3106692              -8.4537
        78                         -0.2899424              -7.8897
        79                         -0.2836066              -7.7173
        80                         -0.2791535              -7.5962
       ...                                ...                  ...
       146                          0.5945471              16.1785
      -------------------------------------------------------------
                  HL-Gap            0.1125745 Eh            3.0633 eV
             Fermi-level           -0.3717021 Eh          -10.1145 eV

 SCC (total)                   0 d,  0 h,  0 min,  0.308 sec
 SCC setup                      ...        0 min,  0.005 sec (  1.560%)
 Dispersion                     ...        0 min,  0.016 sec (  5.097%)
 classical contributions        ...        0 min,  0.000 sec (  0.073%)
 integral evaluation            ...        0 min,  0.017 sec (  5.583%)
 iterations                     ...        0 min,  0.241 sec ( 78.124%)
 molecular gradient             ...        0 min,  0.029 sec (  9.270%)
 printout                       ...        0 min,  0.001 sec (  0.214%)

         :::::::::::::::::::::::::::::::::::::::::::::::::::::
         ::                     SUMMARY                     ::
         :::::::::::::::::::::::::::::::::::::::::::::::::::::
         :: total energy             -81.571130376623 Eh    ::
         :: gradient norm              0.060380081093 Eh/a0 ::
         :: HOMO-LUMO gap              3.063307086228 eV    ::
         ::.................................................::
         :: SCC energy               -82.853151646871 Eh    ::
         :: -> isotropic ES            0.124341333357 Eh    ::
         :: -> anisotropic ES          0.000370476450 Eh    ::
         :: -> anisotropic XC          0.044995376666 Eh    ::
         :: -> dispersion             -0.063465919238 Eh    ::
         :: repulsion energy           1.281263614977 Eh    ::
         :: add. restraining           0.000000000000 Eh    ::
         :: total charge               1.000000000000 e     ::
         :::::::::::::::::::::::::::::::::::::::::::::::::::::

           -------------------------------------------------
          |                Property Printout                |
           -------------------------------------------------

    * Orbital Energies and Occupations

         #    Occupation            Energy/Eh            Energy/eV
      -------------------------------------------------------------
         1        2.0000           -0.8730542             -23.7570
       ...           ...                  ...                  ...
        63        2.0000           -0.5000202             -13.6062
        64        2.0000           -0.4938701             -13.4389
        65        2.0000           -0.4890233             -13.3070
        66        2.0000           -0.4877274             -13.2717
        67        2.0000           -0.4829953             -13.1430
        68        2.0000           -0.4789142             -13.0319
        69        2.0000           -0.4774602             -12.9924
        70        2.0000           -0.4670583             -12.7093
        71        2.0000           -0.4608357             -12.5400
        72        2.0000           -0.4578631             -12.4591
        73        2.0000           -0.4560089             -12.4086
        74        2.0000           -0.4473408             -12.1728
        75        2.0000           -0.4279893             -11.6462 (HOMO)
        76                         -0.3154149              -8.5829 (LUMO)
        77                         -0.3106692              -8.4537
        78                         -0.2899424              -7.8897
        79                         -0.2836066              -7.7173
        80                         -0.2791535              -7.5962
        81                         -0.2734824              -7.4418
        82                         -0.2624215              -7.1409
        83                         -0.2435934              -6.6285
        84                         -0.1802241              -4.9041
        85                         -0.1781540              -4.8478
        86                         -0.1723608              -4.6902
       ...                                ...                  ...
       146                          0.5945471              16.1785
      -------------------------------------------------------------
                  HL-Gap            0.1125745 Eh            3.0633 eV
             Fermi-level           -0.3717021 Eh          -10.1145 eV

     #   Z          covCN         q      C6AA      α(0)
     1   6 C        2.965     0.001    28.008     8.681
     2   6 C        2.919    -0.036    28.900     8.816
     3   6 C        2.907    -0.056    29.381     8.888
     4   6 C        2.842     0.146    24.815     8.164
     5   8 O        1.660    -0.385    20.569     6.122
     6   6 C        2.909    -0.071    29.782     8.949
     7   6 C        2.923    -0.033    28.822     8.804
     8   6 C        2.956    -0.013    28.345     8.733
     9   6 C        2.952     0.003    27.949     8.671
    10   6 C        3.801    -0.056    21.572     6.613
    11   6 C        3.746    -0.096    22.407     6.752
    12   6 C        2.970     0.011    27.765     8.643
    13   6 C        2.917    -0.034    28.836     8.806
    14   6 C        2.912    -0.030    28.747     8.792
    15   6 C        2.915    -0.031    28.784     8.798
    16   6 C        2.912    -0.030    28.737     8.790
    17   6 C        2.919    -0.034    28.843     8.807
    18   6 C        2.966     0.018    27.595     8.616
    19   6 C        2.925    -0.032    28.793     8.800
    20   6 C        2.911    -0.054    29.343     8.883
    21   6 C        2.855     0.124    25.274     8.240
    22   8 O        1.705    -0.308    19.132     5.906
    23   6 C        2.916    -0.060    29.499     8.906
    24   6 C        2.921    -0.029    28.737     8.791
    25   6 C        3.688     0.074    19.528     6.325
    26   6 C        3.738    -0.041    21.385     6.599
    27   7 N        3.569     0.044    20.467     6.719
    28   6 C        3.683    -0.097    22.564     6.802
    29   6 C        3.690    -0.098    22.570     6.799
    30   1 H        0.805     0.305     0.705     1.319
    31   1 H        0.925     0.026     2.638     2.540
    32   1 H        0.925     0.051     2.309     2.377
    33   1 H        0.859     0.231     0.959     1.534
    34   1 H        0.925     0.032     2.554     2.499
    35   1 H        0.925     0.037     2.494     2.470
    36   1 H        0.924     0.047     2.355     2.400
    37   1 H        0.924     0.041     2.433     2.439
    38   1 H        0.924     0.034     2.527     2.486
    39   1 H        0.924     0.041     2.436     2.441
    40   1 H        0.924     0.038     2.482     2.464
    41   1 H        0.925     0.026     2.643     2.543
    42   1 H        0.925     0.033     2.550     2.497
    43   1 H        0.925     0.033     2.549     2.497
    44   1 H        0.925     0.033     2.548     2.496
    45   1 H        0.925     0.027     2.624     2.533
    46   1 H        0.925     0.050     2.323     2.383
    47   1 H        0.925     0.038     2.474     2.460
    48   1 H        0.926     0.031     2.576     2.510
    49   1 H        0.925     0.047     2.352     2.398
    50   1 H        0.924     0.072     2.069     2.250
    51   1 H        0.924     0.052     2.293     2.368
    52   1 H        0.924     0.108     1.714     2.048
    53   1 H        0.925     0.100     1.783     2.088
    54   1 H        0.924     0.099     1.793     2.094
    55   1 H        0.925     0.136     1.488     1.907
    56   1 H        0.924     0.107     1.724     2.054
    57   1 H        0.924     0.110     1.695     2.036
    58   1 H        0.924     0.107     1.720     2.051
    59   1 H        0.925     0.109     1.706     2.042

 Mol. C6AA /au·bohr⁶  :      36539.190615
 Mol. C8AA /au·bohr⁸  :     872913.801460
 Mol. α(0) /au        :        301.434914


Wiberg/Mayer (AO) data.
largest (>0.10) Wiberg bond orders for each atom

 ---------------------------------------------------------------------------
     #   Z sym  total        # sym  WBO       # sym  WBO       # sym  WBO
 ---------------------------------------------------------------------------
     1   6 C    3.986 --     7 C    1.400     2 C    1.376     8 C    1.014
     2   6 C    3.988 --     3 C    1.470     1 C    1.376    31 H    0.971
                             6 C    0.104
     3   6 C    3.986 --     2 C    1.470     4 C    1.350    32 H    0.968
                             7 C    0.104
     4   6 C    3.937 --     6 C    1.374     3 C    1.350     5 O    1.083
     5   8 O    2.128 --     4 C    1.083    30 H    0.884
     6   6 C    3.986 --     7 C    1.444     4 C    1.374    34 H    0.965
                             2 C    0.104
     7   6 C    3.989 --     6 C    1.444     1 C    1.400    35 H    0.968
                             3 C    0.104
     8   6 C    3.980 --     9 C    1.779    18 C    1.019     1 C    1.014
     9   6 C    3.980 --     8 C    1.779    12 C    1.018    10 C    1.001
    10   6 C    3.994 --    11 C    1.003     9 C    1.001    37 H    0.973
                            36 H    0.960
    11   6 C    3.993 --    10 C    1.003    40 H    0.988    38 H    0.987
                            39 H    0.986
    12   6 C    3.987 --    17 C    1.402    13 C    1.389     9 C    1.018
                            15 C    0.110
    13   6 C    3.988 --    14 C    1.456    12 C    1.389    41 H    0.969
                            16 C    0.109
    14   6 C    3.991 --    13 C    1.456    15 C    1.427    42 H    0.970
                            17 C    0.110
    15   6 C    3.989 --    16 C    1.445    14 C    1.427    43 H    0.971
                            12 C    0.110
    16   6 C    3.991 --    15 C    1.445    17 C    1.439    44 H    0.970
                            13 C    0.109
    17   6 C    3.989 --    16 C    1.439    12 C    1.402    45 H    0.971
                            14 C    0.110
    18   6 C    3.984 --    24 C    1.404    19 C    1.375     8 C    1.019
    19   6 C    3.987 --    20 C    1.462    18 C    1.375    46 H    0.967
                            23 C    0.107
    20   6 C    3.986 --    19 C    1.462    21 C    1.374    47 H    0.968
                            24 C    0.104
    21   6 C    3.915 --    23 C    1.396    20 C    1.374    22 O    0.982
    22   8 O    2.139 --    25 C    0.985    21 C    0.982
    23   6 C    3.988 --    24 C    1.439    21 C    1.396    48 H    0.964
                            19 C    0.107
    24   6 C    3.987 --    23 C    1.439    18 C    1.404    49 H    0.969
                            20 C    0.104
    25   6 C    3.959 --    26 C    1.012    22 O    0.985    51 H    0.957
                            50 H    0.950
    26   6 C    3.925 --    25 C    1.012    52 H    0.967    53 H    0.965
                            27 N    0.923
    27   7 N    3.769 --    29 C    0.956    28 C    0.945    26 C    0.923
                            33 H    0.923
    28   6 C    3.902 --    54 H    0.977    56 H    0.975    55 H    0.962
                            27 N    0.945
    29   6 C    3.915 --    58 H    0.976    57 H    0.976    59 H    0.974
                            27 N    0.956
    30   1 H    0.907 --     5 O    0.884
    31   1 H    0.999 --     2 C    0.971
    32   1 H    0.997 --     3 C    0.968
    33   1 H    0.946 --    27 N    0.923
    34   1 H    0.999 --     6 C    0.965
    35   1 H    0.999 --     7 C    0.968
    36   1 H    0.996 --    10 C    0.960
    37   1 H    0.998 --    10 C    0.973
    38   1 H    0.999 --    11 C    0.987
    39   1 H    0.998 --    11 C    0.986
    40   1 H    0.999 --    11 C    0.988
    41   1 H    0.999 --    13 C    0.969
    42   1 H    0.998 --    14 C    0.970
    43   1 H    0.998 --    15 C    0.971
    44   1 H    0.998 --    16 C    0.970
    45   1 H    0.999 --    17 C    0.971
    46   1 H    0.997 --    19 C    0.967
    47   1 H    0.998 --    20 C    0.968
    48   1 H    0.998 --    23 C    0.964
    49   1 H    0.998 --    24 C    0.969
    50   1 H    0.995 --    25 C    0.950
    51   1 H    0.997 --    25 C    0.957
    52   1 H    0.988 --    26 C    0.967
    53   1 H    0.989 --    26 C    0.965
    54   1 H    0.990 --    28 C    0.977
    55   1 H    0.981 --    28 C    0.962
    56   1 H    0.989 --    28 C    0.975
    57   1 H    0.988 --    29 C    0.976
    58   1 H    0.988 --    29 C    0.976
    59   1 H    0.988 --    29 C    0.974
 ---------------------------------------------------------------------------

Topologies differ in total number of bonds
Writing topology from bond orders to xtbtopo.mol

molecular dipole:
                 x           y           z       tot (Debye)
 q only:       93.479     -61.755    -169.137
   full:       93.239     -61.914    -169.110     515.449
molecular quadrupole (traceless):
                xx          xy          yy          xz          yz          zz
 q only:    -7482.545   -8673.608  -14872.979  -23703.992   15644.128   22355.524
  q+dip:    -7527.755   -8680.744  -14826.280  -23634.494   15681.754   22354.035
   full:    -7529.428   -8679.028  -14827.613  -23634.813   15680.778   22357.040


           -------------------------------------------------
          | TOTAL ENERGY              -81.571130376623 Eh   |
          | GRADIENT NORM               0.060380081093 Eh/α |
          | HOMO-LUMO GAP               3.063307086228 eV   |
           -------------------------------------------------

------------------------------------------------------------------------
 * finished run on 2024/01/09 at 19:34:16.289     
------------------------------------------------------------------------
 total:
 * wall-time:     0 d,  0 h,  0 min,  0.375 sec
 *  cpu-time:     0 d,  0 h,  0 min,  5.430 sec
 * ratio c/w:    14.496 speedup
 SCF:
 * wall-time:     0 d,  0 h,  0 min,  0.309 sec
 *  cpu-time:     0 d,  0 h,  0 min,  4.488 sec
 * ratio c/w:    14.538 speedup

