 Entering Gaussian System, Link 0=g16
 AtFile(1): /share/home/chem-zhonglh/yanzy/env/amber14_mod.prm
            !
            ! Non-bonded interaction
            !
            NonBon 3 1 0 0 0.000 0.000 0.500 0.000 0.000 -1.000
            !
            ! Stretches
            !
            HrmStr1 OW HW  553.0  0.9572
            HrmStr1 HW HW  553.0  1.5136
            HrmStr1 C  C   310.0  1.525
            HrmStr1 C  CA  469.0  1.409
            HrmStr1 C  CB  447.0  1.419
            HrmStr1 C  CM  410.0  1.444
            HrmStr1 C  CS  410.0  1.444
            HrmStr1 C  CT  317.0  1.522
            HrmStr1 C  CX  317.0  1.522
            HrmStr1 C  N   490.0  1.335
            HrmStr1 C  N*  424.0  1.383
            HrmStr1 C  NA  418.0  1.388
            HrmStr1 C  NC  457.0  1.358
            HrmStr1 C  O   570.0  1.229
            HrmStr1 C  O2  656.0  1.250
            HrmStr1 C  OH  450.0  1.364
            HrmStr1 C  OS  450.0  1.323
            HrmStr1 C  H4  367.0  1.080
            HrmStr1 C  H5  367.0  1.080
            HrmStr1 CA CA  469.0  1.400
            HrmStr1 CA CB  469.0  1.404
            HrmStr1 CA CM  427.0  1.433
            HrmStr1 CA CS  427.0  1.433
            HrmStr1 CA CN  469.0  1.400
            HrmStr1 CA CT  317.0  1.510
            HrmStr1 CA HA  367.0  1.080
            HrmStr1 CA H4  367.0  1.080
            HrmStr1 CA N2  481.0  1.340
            HrmStr1 CA NA  427.0  1.381
            HrmStr1 CA NC  483.0  1.339
            HrmStr1 CA OH  450.0  1.364
            HrmStr1 CB CB  520.0  1.370
            HrmStr1 CB N*  436.0  1.374
            HrmStr1 CB NB  414.0  1.391
            HrmStr1 CB NC  461.0  1.354
            HrmStr1 CD HA  367.0  1.080
            HrmStr1 CD CD  469.0  1.400
            HrmStr1 CD CM  549.0  1.350
            HrmStr1 CD CS  549.0  1.350
            HrmStr1 CD CT  317.0  1.510
            HrmStr1 CK H5  367.0  1.080
            HrmStr1 CK N*  440.0  1.371
            HrmStr1 CK NB  529.0  1.304
            HrmStr1 CP H5  367.0  1.080
            HrmStr1 CP N*  440.0  1.371
            HrmStr1 CP NB  529.0  1.304
            HrmStr1 CM CM  549.0  1.350
            HrmStr1 CM CT  317.0  1.510
            HrmStr1 CM HA  367.0  1.080
            HrmStr1 CM H4  367.0  1.080
            HrmStr1 CM H5  367.0  1.080
            HrmStr1 CM N*  448.0  1.365
            HrmStr1 CM OS  480.0  1.240
            HrmStr1 CS CS  549.0  1.350
            HrmStr1 CS CT  317.0  1.510
            HrmStr1 CS HA  367.0  1.080
            HrmStr1 CS H4  367.0  1.080
            HrmStr1 CS H5  367.0  1.080
            HrmStr1 CS N*  448.0  1.365
            HrmStr1 CS OS  480.0  1.240
            HrmStr1 CQ H5  367.0  1.080
            HrmStr1 CQ NC  502.0  1.324
            HrmStr1 CT CT  310.0  1.526
            HrmStr1 CX CT  310.0  1.526
            HrmStr1 CT HC  340.0  1.090
            HrmStr1 CT H1  340.0  1.090
            HrmStr1 CX H1  340.0  1.090
            HrmStr1 CT H2  340.0  1.090
            HrmStr1 CT H3  340.0  1.090
            HrmStr1 CT HP  340.0  1.090
            HrmStr1 CX HP  340.0  1.090
            HrmStr1 CT N*  337.0  1.475
            HrmStr1 CT N2  337.0  1.463
            HrmStr1 CT OH  320.0  1.410
            HrmStr1 CT OS  320.0  1.410
            HrmStr1 C* HC  367.0  1.080
            HrmStr1 C* CB  388.0  1.459
            HrmStr1 C* CT  317.0  1.495
            HrmStr1 C* CW  546.0  1.352
            HrmStr1 CB CN  447.0  1.419
            HrmStr1 CC CT  317.0  1.504
            HrmStr1 CC CV  512.0  1.375
            HrmStr1 CC CW  518.0  1.371
            HrmStr1 CC NA  422.0  1.385
            HrmStr1 CC NB  410.0  1.394
            HrmStr1 CN NA  428.0  1.380
            HrmStr1 CR H5  367.0  1.080
            HrmStr1 CR NA  477.0  1.343
            HrmStr1 CR NB  488.0  1.335
            HrmStr1 CT N   337.0  1.449
            HrmStr1 CX N   337.0  1.449
            HrmStr1 CT N3  367.0  1.471
            HrmStr1 CX N3  367.0  1.471
            HrmStr1 CT NT  367.0  1.471
            HrmStr1 CT S   227.0  1.810
            HrmStr1 CT SH  237.0  1.810
            HrmStr1 CT CY  400.0  1.458
            HrmStr1 CT CZ  400.0  1.459
            HrmStr1 CV H4  367.0  1.080
            HrmStr1 CV NB  410.0  1.394
            HrmStr1 CW H4  367.0  1.080
            HrmStr1 CW NA  427.0  1.381
            HrmStr1 CY NY  600.0  1.150
            HrmStr1 CZ CZ  600.0  1.206
            HrmStr1 CZ HZ  400.0  1.056
            HrmStr1 OP P   525.0  1.480
            HrmStr1 O2 P   525.0  1.480
            HrmStr1 OH P   230.0  1.610
            HrmStr1 OS P   230.0  1.610
            HrmStr1 NA P   250.0  1.840
            HrmStr1 H  N2  434.0  1.010
            HrmStr1 H  N*  434.0  1.010
            HrmStr1 H  NA  434.0  1.010
            HrmStr1 H  N   434.0  1.010
            HrmStr1 H  N3  434.0  1.010
            HrmStr1 H  NT  434.0  1.010
            HrmStr1 HO OH  553.0  0.960
            HrmStr1 HO OS  553.0  0.960
            HrmStr1 HS SH  274.0  1.336
            HrmStr1 S  S   166.0  2.038
            HrmStr1 F  CT  367.0  1.380
            HrmStr1 Cl CT  232.0  1.766
            HrmStr1 Br CT  159.0  1.944
            HrmStr1 I  CT  148.0  2.166
            HrmStr1 F  CA  386.0  1.359
            HrmStr1 Cl CA  193.0  1.727
            HrmStr1 I  CA  171.0  2.075
            HrmStr1 Br CA  172.0  1.890
            HrmStr1 EP O   600.0  0.200
            HrmStr1 EP OH  600.0  0.200
            HrmStr1 EP OS  600.0  0.200
            HrmStr1 EP N3  600.0  0.200
            HrmStr1 EP NT  600.0  0.200
            HrmStr1 EP NB  600.0  0.200
            HrmStr1 EP NC  600.0  0.200
            HrmStr1 EP S   600.0  0.700
            HrmStr1 EP SH  600.0  0.700
            HrmStr1 CI H1  340.0  1.090
            HrmStr1 CI CT  310.0  1.526
            HrmStr1 OS CI  320.0  1.410
            HrmStr1 OH CI  320.0  1.410
            HrmStr1 C5 H5  367.0  1.080
            HrmStr1 C5 N*  440.0  1.371
            HrmStr1 C5 NB  529.0  1.304
            HrmStr1 C  C4  410.0  1.444
            HrmStr1 CA C4  427.0  1.433
            HrmStr1 C4 C4  549.0  1.350
            HrmStr1 C4 CT  317.0  1.510
            HrmStr1 C4 HA  367.0  1.080
            HrmStr1 C4 H4  367.0  1.080
            HrmStr1 C4 N*  448.0  1.365
            HrmStr1 C8 C8  310.0  1.5260
            HrmStr1 C8 CX  310.0  1.5260
            HrmStr1 C8 H1  340.0  1.0900
            HrmStr1 C8 HC  340.0  1.0900
            HrmStr1 C8 HP  340.0  1.0900
            HrmStr1 C8 N2  337.0  1.4630
            HrmStr1 C8 N3  367.0  1.4710
            HrmStr1 CO O2  656.0  1.2500
            !
            ! Angles
            !
            HrmBnd1 HW OW HW    100.   104.52
            HrmBnd1 HW HW OW      0.   127.74
            HrmBnd1 C  C  O     80.0   120.00
            HrmBnd1 C  C  OH    80.0   120.00
            HrmBnd1 CA C  CA    63.0   120.00
            HrmBnd1 CA C  OH    70.0   120.00
            HrmBnd1 CA C  OS    70.0   120.00
            HrmBnd1 CC NA P     76.7   125.10
            HrmBnd1 CR NA P     76.7   125.10
            HrmBnd1 NA P  OP    42.9   102.38
            HrmBnd1 CB C  NA    70.0   111.30
            HrmBnd1 CB C  O     80.0   128.80
            HrmBnd1 CM C  NA    70.0   114.10
            HrmBnd1 CM C  O     80.0   125.30
            HrmBnd1 CS C  NA    70.0   114.10
            HrmBnd1 CS C  O     80.0   125.30
            HrmBnd1 CT C  O     80.0   120.40
            HrmBnd1 CX C  O     80.0   120.40
            HrmBnd1 CT C  O2    70.0   117.00
            HrmBnd1 CX C  O2    70.0   117.00
            HrmBnd1 CT C  N     70.0   116.60
            HrmBnd1 CX C  N     70.0   116.60
            HrmBnd1 CT C  CT    63.0   117.00
            HrmBnd1 CT C  OS    80.0   115.00
            HrmBnd1 CT C  OH    80.0   110.00
            HrmBnd1 CX C  OH    80.0   110.00
            HrmBnd1 N* C  NA    70.0   115.40
            HrmBnd1 N* C  NC    70.0   118.60
            HrmBnd1 N* C  O     80.0   120.90
            HrmBnd1 NA C  O     80.0   120.60
            HrmBnd1 NC C  O     80.0   122.50
            HrmBnd1 N  C  O     80.0   122.90
            HrmBnd1 O  C  O     80.0   126.00
            HrmBnd1 O  C  OH    80.0   120.00
            HrmBnd1 O  C  OS    80.0   125.00
            HrmBnd1 O2 C  O2    80.0   126.00
            HrmBnd1 H4 C  C     50.0   120.00
            HrmBnd1 H4 C  CM    50.0   115.00
            HrmBnd1 H4 C  CS    50.0   115.00
            HrmBnd1 H4 C  CT    50.0   115.00
            HrmBnd1 H4 C  O     50.0   120.00
            HrmBnd1 H4 C  OH    50.0   120.00
            HrmBnd1 H5 C  N     50.0   120.00
            HrmBnd1 H5 C  O     50.0   119.00
            HrmBnd1 H5 C  OH    50.0   107.00
            HrmBnd1 H5 C  OS    50.0   107.00
            HrmBnd1 C  CA CA    63.0   120.00
            HrmBnd1 C  CA HA    50.0   120.00
            HrmBnd1 CA CA CA    63.0   120.00
            HrmBnd1 CA CA CB    63.0   120.00
            HrmBnd1 CA CA CT    70.0   120.00
            HrmBnd1 CA CA HA    50.0   120.00
            HrmBnd1 CA CA H4    50.0   120.00
            HrmBnd1 CA CA OH    70.0   120.00
            HrmBnd1 CA CA CN    63.0   120.00
            HrmBnd1 CB CA HA    50.0   120.00
            HrmBnd1 CB CA H4    50.0   120.00
            HrmBnd1 CB CA N2    70.0   123.50
            HrmBnd1 CB CA NC    70.0   117.30
            HrmBnd1 CM CA N2    70.0   120.10
            HrmBnd1 CM CA NC    70.0   121.50
            HrmBnd1 CS CA N2    70.0   120.10
            HrmBnd1 CS CA NC    70.0   121.50
            HrmBnd1 CN CA HA    50.0   120.00
            HrmBnd1 NA CA NC    70.0   123.30
            HrmBnd1 N2 CA NA    70.0   116.00
            HrmBnd1 N2 CA NC    70.0   119.30
            HrmBnd1 N2 CA N2    70.0   120.00
            HrmBnd1 F  CA CA    70.0   121.00
            HrmBnd1 Cl CA CA    70.0   118.80
            HrmBnd1 Br CA CA    70.0   118.80
            HrmBnd1 I  CA CA    70.0   118.80
            HrmBnd1 C  CB CB    63.0   119.20
            HrmBnd1 C  CB NB    70.0   130.00
            HrmBnd1 CA CB CB    63.0   117.30
            HrmBnd1 CA CB NB    70.0   132.40
            HrmBnd1 CB CB N*    70.0   106.20
            HrmBnd1 CB CB NB    70.0   110.40
            HrmBnd1 CB CB NC    70.0   127.70
            HrmBnd1 C* CB CA    63.0   134.90
            HrmBnd1 C* CB CN    63.0   108.80
            HrmBnd1 CA CB CN    63.0   116.20
            HrmBnd1 N* CB NC    70.0   126.20
            HrmBnd1 CD CD CM    63.0   120.00
            HrmBnd1 CD CD CS    63.0   120.00
            HrmBnd1 CD CD CT    70.0   120.00
            HrmBnd1 CM CD CT    70.0   120.00
            HrmBnd1 CS CD CT    70.0   120.00
            HrmBnd1 HA CD HA    35.0   119.00
            HrmBnd1 HA CD CD    50.0   120.00
            HrmBnd1 HA CD CM    50.0   120.00
            HrmBnd1 HA CD CS    50.0   120.00
            HrmBnd1 H5 CK N*    50.0   123.05
            HrmBnd1 H5 CK NB    50.0   123.05
            HrmBnd1 N* CK NB    70.0   113.90
            HrmBnd1 H5 CP N*    50.0   123.05
            HrmBnd1 H5 CP NB    50.0   123.05
            HrmBnd1 N* CP NB    70.0   113.90
            HrmBnd1 C  CM CM    63.0   120.70
            HrmBnd1 C  CM CT    70.0   119.70
            HrmBnd1 C  CM HA    50.0   119.70
            HrmBnd1 C  CM H4    50.0   119.70
            HrmBnd1 CA CM CM    63.0   117.00
            HrmBnd1 CA CM HA    50.0   123.30
            HrmBnd1 CA CM H4    50.0   123.30
            HrmBnd1 CM CM CT    70.0   119.70
            HrmBnd1 CM CM HA    50.0   119.70
            HrmBnd1 CM CM H4    50.0   119.70
            HrmBnd1 CM CM N*    70.0   121.20
            HrmBnd1 CM CM OS    80.0   125.00
            HrmBnd1 H4 CM N*    50.0   119.10
            HrmBnd1 H4 CM OS    50.0   113.00
            HrmBnd1 HA CM HA    35.0   120.00
            HrmBnd1 HA CM CD    50.0   120.00
            HrmBnd1 HA CM CT    50.0   120.00
            HrmBnd1 C  CS CS    63.0   120.70
            HrmBnd1 C  CS CT    70.0   119.70
            HrmBnd1 C  CS HA    50.0   119.70
            HrmBnd1 C  CS H4    50.0   119.70
            HrmBnd1 CA CS CS    63.0   117.00
            HrmBnd1 CA CS HA    50.0   123.30
            HrmBnd1 CA CS H4    50.0   123.30
            HrmBnd1 CM CS CT    70.0   119.70
            HrmBnd1 CS CS HA    50.0   119.70
            HrmBnd1 CS CS H4    50.0   119.70
            HrmBnd1 CS CS N*    70.0   121.20
            HrmBnd1 CS CS OS    80.0   125.00
            HrmBnd1 H4 CS N*    50.0   119.10
            HrmBnd1 H4 CS OS    50.0   113.00
            HrmBnd1 HA CS HA    35.0   120.00
            HrmBnd1 HA CS CD    50.0   120.00
            HrmBnd1 HA CS CT    50.0   120.00
            HrmBnd1 NC CQ NC    70.0   129.10
            HrmBnd1 H5 CQ NC    50.0   115.45
            HrmBnd1 H1 CT H1    35.0   109.50
            HrmBnd1 H1 CX H1    35.0   109.50
            HrmBnd1 H1 CT N*    50.0   109.50
            HrmBnd1 H1 CT OH    50.0   109.50
            HrmBnd1 H1 CT OS    50.0   109.50
            HrmBnd1 H1 CT CM    50.0   109.50
            HrmBnd1 H1 CT CS    50.0   109.50
            HrmBnd1 H1 CT CY    50.0   110.00
            HrmBnd1 H1 CT CZ    50.0   110.00
            HrmBnd1 H1 CT N     50.0   109.50
            HrmBnd1 H1 CX N     50.0   109.50
            HrmBnd1 H1 CT S     50.0   109.50
            HrmBnd1 H1 CT SH    50.0   109.50
            HrmBnd1 H1 CT N2    50.0   109.50
            HrmBnd1 H1 CT NT    50.0   109.50
            HrmBnd1 H2 CT H2    35.0   109.50
            HrmBnd1 H2 CT N*    50.0   109.50
            HrmBnd1 H2 CT OS    50.0   109.50
            HrmBnd1 HP CT HP    35.0   109.50
            HrmBnd1 HP CX HP    35.0   109.50
            HrmBnd1 HP CT N3    50.0   109.50
            HrmBnd1 HP CX N3    50.0   109.50
            HrmBnd1 HC CT HC    35.0   109.50
            HrmBnd1 HC CT CM    50.0   109.50
            HrmBnd1 HC CT CS    50.0   109.50
            HrmBnd1 HC CT CD    50.0   109.50
            HrmBnd1 HC CT CZ    50.0   110.00
            HrmBnd1 C  CT H1    50.0   109.50
            HrmBnd1 C  CX H1    50.0   109.50
            HrmBnd1 C  CT HP    50.0   109.50
            HrmBnd1 C  CX HP    50.0   109.50
            HrmBnd1 C  CT HC    50.0   109.50
            HrmBnd1 C  CT N     63.0   110.10
            HrmBnd1 C  CX N     63.0   110.10
            HrmBnd1 C  CT N3    80.0   111.20
            HrmBnd1 C  CX N3    80.0   111.20
            HrmBnd1 C  CT CT    63.0   111.10
            HrmBnd1 C  CT CX    63.0   111.10
            HrmBnd1 C  CX CT    63.0   111.10
            HrmBnd1 C  CT OS    60.0   109.50
            HrmBnd1 CA CT HC    50.0   109.50
            HrmBnd1 CC CT CT    63.0   113.10
            HrmBnd1 CC CT CX    63.0   113.10
            HrmBnd1 CC CT HC    50.0   109.50
            HrmBnd1 CM CT CT    63.0   111.00
            HrmBnd1 CM CT OS    50.0   109.50
            HrmBnd1 CS CT CT    63.0   111.00
            HrmBnd1 CS CT OS    50.0   109.50
            HrmBnd1 CT CT CT    40.0   109.50
            HrmBnd1 CT CT CX    40.0   109.50
            HrmBnd1 CT CT HC    50.0   109.50
            HrmBnd1 CX CT HC    50.0   109.50
            HrmBnd1 CT CT H1    50.0   109.50
            HrmBnd1 CT CX H1    50.0   109.50
            HrmBnd1 CX CT H1    50.0   109.50
            HrmBnd1 CT CT H2    50.0   109.50
            HrmBnd1 CT CT HP    50.0   109.50
            HrmBnd1 CT CX HP    50.0   109.50
            HrmBnd1 CT CT N*    50.0   109.50
            HrmBnd1 CT CT OH    50.0   109.50
            HrmBnd1 CX CT OH    50.0   109.50
            HrmBnd1 CT CT OS    50.0   109.50
            HrmBnd1 CT CT S     50.0   114.70
            HrmBnd1 CX CT S     50.0   114.70
            HrmBnd1 CT CT SH    50.0   108.60
            HrmBnd1 CX CT SH    50.0   108.60
            HrmBnd1 CT CT CA    63.0   114.00
            HrmBnd1 CX CT CA    63.0   114.00
            HrmBnd1 CT CT N2    80.0   111.20
            HrmBnd1 CT CT N     80.0   109.70
            HrmBnd1 CT CX N     80.0   109.70
            HrmBnd1 CT CT N3    80.0   111.20
            HrmBnd1 CT CX N3    80.0   111.20
            HrmBnd1 CT CT NT    80.0   111.20
            HrmBnd1 CT CT CY    63.0   110.00
            HrmBnd1 CT CT CZ    63.0   110.00
            HrmBnd1 C* CT CT    63.0   115.60
            HrmBnd1 C* CT CX    63.0   115.60
            HrmBnd1 C* CT HC    50.0   109.50
            HrmBnd1 OS CT OS   160.0   101.00
            HrmBnd1 OS CT CY    50.0   110.00
            HrmBnd1 OS CT CZ    50.0   110.00
            HrmBnd1 OS CT N*    50.0   109.50
            HrmBnd1 F  CT F     77.0   109.10
            HrmBnd1 F  CT H1    50.0   109.50
            HrmBnd1 F  CT CT    50.0   109.00
            HrmBnd1 F  CT H2    50.0   109.50
            HrmBnd1 Cl CT CT    50.0   108.50
            HrmBnd1 Cl CT H1    50.0   108.50
            HrmBnd1 Br CT CT    50.0   108.00
            HrmBnd1 Br CT H1    50.0   106.50
            HrmBnd1 I  CT CT    50.0   106.00
            HrmBnd1 CT CC NA    70.0   120.00
            HrmBnd1 CT CC CV    70.0   120.00
            HrmBnd1 CT CC NB    70.0   120.00
            HrmBnd1 CV CC NA    70.0   120.00
            HrmBnd1 CW CC NA    70.0   120.00
            HrmBnd1 CW CC NB    70.0   120.00
            HrmBnd1 CT CC CW    70.0   120.00
            HrmBnd1 H5 CR NA    50.0   120.00
            HrmBnd1 H5 CR NB    50.0   120.00
            HrmBnd1 NA CR NA    70.0   120.00
            HrmBnd1 NA CR NB    70.0   120.00
            HrmBnd1 CC CV H4    50.0   120.00
            HrmBnd1 CC CV NB    70.0   120.00
            HrmBnd1 H4 CV NB    50.0   120.00
            HrmBnd1 CC CW H4    50.0   120.00
            HrmBnd1 CC CW NA    70.0   120.00
            HrmBnd1 C* CW H4    50.0   120.00
            HrmBnd1 C* CW NA    70.0   108.70
            HrmBnd1 H4 CW NA    50.0   120.00
            HrmBnd1 CB C* CT    70.0   128.60
            HrmBnd1 CB C* CW    63.0   106.40
            HrmBnd1 CT C* CW    70.0   125.00
            HrmBnd1 CA CN CB    63.0   122.70
            HrmBnd1 CA CN NA    70.0   132.80
            HrmBnd1 CB CN NA    70.0   104.40
            HrmBnd1 CT CY NY    80.0   180.00
            HrmBnd1 CT CZ CZ    80.0   180.00
            HrmBnd1 CZ CZ HZ    50.0   180.00
            HrmBnd1 C  N  CT    50.0   121.90
            HrmBnd1 C  N  CX    50.0   121.90
            HrmBnd1 C  N  H     50.0   120.00
            HrmBnd1 CT N  H     50.0   118.04
            HrmBnd1 CX N  H     50.0   118.04
            HrmBnd1 CT N  CT    50.0   118.00
            HrmBnd1 CT N  CX    50.0   118.00
            HrmBnd1 H  N  H     35.0   120.00
            HrmBnd1 C  N* CM    70.0   121.60
            HrmBnd1 C  N* CS    70.0   121.60
            HrmBnd1 C  N* CT    70.0   117.60
            HrmBnd1 C  N* H     50.0   119.20
            HrmBnd1 CB N* CK    70.0   105.40
            HrmBnd1 CB N* CP    70.0   105.40
            HrmBnd1 CB N* CT    70.0   125.80
            HrmBnd1 CB N* H     50.0   125.80
            HrmBnd1 CK N* CT    70.0   128.80
            HrmBnd1 CK N* H     50.0   128.80
            HrmBnd1 CP N* CT    70.0   128.80
            HrmBnd1 CP N* H     50.0   128.80
            HrmBnd1 CM N* CT    70.0   121.20
            HrmBnd1 CM N* H     50.0   121.20
            HrmBnd1 CS N* CT    70.0   121.20
            HrmBnd1 CS N* H     50.0   121.20
            HrmBnd1 CA N2 H     50.0   120.00
            HrmBnd1 CA N2 CT    50.0   123.20
            HrmBnd1 CT N2 H     50.0   118.40
            HrmBnd1 H  N2 H     35.0   120.00
            HrmBnd1 CT N3 H     50.0   109.50
            HrmBnd1 CX N3 H     50.0   109.50
            HrmBnd1 CT N3 CT    50.0   109.50
            HrmBnd1 CT N3 CX    50.0   109.50
            HrmBnd1 H  N3 H     35.0   109.50
            HrmBnd1 CT NT H     50.0   109.50
            HrmBnd1 CT NT CT    50.0   109.50
            HrmBnd1 H  NT H     35.0   109.50
            HrmBnd1 C  NA C     70.0   126.40
            HrmBnd1 C  NA CA    70.0   125.20
            HrmBnd1 C  NA H     50.0   116.80
            HrmBnd1 CA NA H     50.0   118.00
            HrmBnd1 CC NA CR    70.0   120.00
            HrmBnd1 CC NA H     50.0   120.00
            HrmBnd1 CR NA CW    70.0   120.00
            HrmBnd1 CR NA H     50.0   120.00
            HrmBnd1 CW NA H     50.0   120.00
            HrmBnd1 CN NA CW    70.0   111.60
            HrmBnd1 CN NA H     50.0   123.10
            HrmBnd1 CB NB CK    70.0   103.80
            HrmBnd1 CB NB CP    70.0   103.80
            HrmBnd1 CC NB CR    70.0   117.00
            HrmBnd1 CR NB CV    70.0   117.00
            HrmBnd1 C  NC CA    70.0   120.50
            HrmBnd1 CA NC CB    70.0   112.20
            HrmBnd1 CA NC CQ    70.0   118.60
            HrmBnd1 CB NC CQ    70.0   111.00
            HrmBnd1 C  OH HO    50.0   113.00
            HrmBnd1 CA OH HO    50.0   113.00
            HrmBnd1 CT OH HO    55.0   108.50
            HrmBnd1 HO OH P     45.0   108.50
            HrmBnd1 C  OS CT    60.0   117.00
            HrmBnd1 CM OS CT    60.0   117.00
            HrmBnd1 CS OS CT    60.0   117.00
            HrmBnd1 CT OS CT    60.0   109.50
            HrmBnd1 CT OS P    100.0   120.50
            HrmBnd1 C  OS P    100.0   120.50
            HrmBnd1 P  OS P    100.0   120.50
            HrmBnd1 O2 P  OH    45.0   108.23
            HrmBnd1 O2 P  O2   140.0   119.90
            HrmBnd1 OP P  OP   140.0   119.90
            HrmBnd1 OP P  OS   100.0   108.23
            HrmBnd1 O2 P  OS   100.0   108.23
            HrmBnd1 OH P  OS    45.0   102.60
            HrmBnd1 OS P  OS    45.0   102.60
            HrmBnd1 CT S  CT    62.0    98.90
            HrmBnd1 CT S  S     68.0   103.70
            HrmBnd1 CT SH HS    43.0    96.00
            HrmBnd1 HS SH HS    35.0    92.07
            HrmBnd1 CB NB EP   150.0   126.00
            HrmBnd1 CC NB EP   150.0   126.00
            HrmBnd1 CK NB EP   150.0   126.00
            HrmBnd1 CP NB EP   150.0   126.00
            HrmBnd1 CR NB EP   150.0   126.00
            HrmBnd1 CV NB EP   150.0   126.00
            HrmBnd1 C  NC EP   150.0   120.00
            HrmBnd1 CA NC EP   150.0   120.00
            HrmBnd1 CB NC EP   150.0   120.00
            HrmBnd1 CQ NC EP   150.0   120.00
            HrmBnd1 CT N3 EP   150.0   109.50
            HrmBnd1 H  N3 EP   150.0   109.50
            HrmBnd1 CT NT EP   150.0   109.50
            HrmBnd1 H  NT EP   150.0   109.50
            HrmBnd1 C  O  EP   150.0   120.00
            HrmBnd1 EP O  EP   150.0   120.00
            HrmBnd1 C  OH EP   150.0   120.00
            HrmBnd1 CT OH EP   150.0   109.50
            HrmBnd1 HO OH EP   150.0   109.50
            HrmBnd1 EP OH EP   150.0   109.50
            HrmBnd1 C  OS EP   150.0   109.50
            HrmBnd1 CM OS EP   150.0   109.50
            HrmBnd1 CS OS EP   150.0   109.50
            HrmBnd1 CT OS EP   150.0   109.50
            HrmBnd1 EP OS EP   150.0   109.50
            HrmBnd1 CT S  EP   150.0    90.00
            HrmBnd1 CT SH EP   150.0    90.00
            HrmBnd1 P  OS EP   150.0   109.50
            HrmBnd1 EP S  EP   150.0   180.00
            HrmBnd1 EP SH EP   150.0   180.00
            HrmBnd1 HS SH EP   150.0    90.00
            HrmBnd1 H1 CI CT    50.0   109.50
            HrmBnd1 H1 CI H1    35.0   109.50
            HrmBnd1 CI CT H1    50.0   109.50
            HrmBnd1 CI CT OS    50.0   109.50
            HrmBnd1 CI CT CT    40.0   109.50
            HrmBnd1 OS CI H1    50.0   109.50
            HrmBnd1 OS CI CT    50.0   109.50
            HrmBnd1 P  OS CI   100.0   120.50
            HrmBnd1 OH CI H1    50.0   109.50
            HrmBnd1 OH CI CT    50.0   109.50
            HrmBnd1 HO OH CI    55.0   108.50
            HrmBnd1 H5 C5 N*    50.0   123.05
            HrmBnd1 H5 C5 NB    50.0   123.05
            HrmBnd1 N* C5 NB    70.0   113.90
            HrmBnd1 CB N* C5    70.0   105.40
            HrmBnd1 C5 N* CT    70.0   128.80
            HrmBnd1 CB NB C5    70.0   103.80
            HrmBnd1 C4 C  NA    70.0   114.10
            HrmBnd1 C4 C  O     80.0   125.30
            HrmBnd1 C4 CA N2    70.0   120.10
            HrmBnd1 C4 CA NC    70.0   121.50
            HrmBnd1 C  C4 C4    63.0   120.70
            HrmBnd1 C  C4 CT    70.0   119.70
            HrmBnd1 C  C4 HA    50.0   119.70
            HrmBnd1 C  C4 H4    50.0   119.70
            HrmBnd1 CA C4 C4    63.0   117.00
            HrmBnd1 CA C4 HA    50.0   123.30
            HrmBnd1 CA C4 H4    50.0   123.30
            HrmBnd1 C4 C4 CT    70.0   119.70
            HrmBnd1 C4 C4 HA    50.0   119.70
            HrmBnd1 C4 C4 H4    50.0   119.70
            HrmBnd1 C4 C4 N*    70.0   121.20
            HrmBnd1 H4 C4 N*    50.0   119.10
            HrmBnd1 H1 CT C4    50.0   109.50
            HrmBnd1 HC CT C4    50.0   109.50
            HrmBnd1 C  N* C4    70.0   121.60
            HrmBnd1 C4 N* CT    70.0   121.20
            HrmBnd1 EP S  S    150.0    96.70
            HrmBnd1 C8 C8 C8    40.0   109.50
            HrmBnd1 C8 C8 CX    40.0   109.50
            HrmBnd1 C8 C8 H1    50.0   109.50
            HrmBnd1 C8 C8 HC    50.0   109.50
            HrmBnd1 C8 C8 HP    50.0   109.50
            HrmBnd1 C8 C8 N2    80.0   111.20
            HrmBnd1 C8 C8 N3    80.0   111.20
            HrmBnd1 CX C8 HC    50.0   109.50
            HrmBnd1 H1 C8 H1    35.0   109.50
            HrmBnd1 H1 C8 N2    50.0   109.50
            HrmBnd1 HC C8 HC    35.0   109.50
            HrmBnd1 HP C8 HP    35.0   109.50
            HrmBnd1 HP C8 N3    50.0   109.50
            HrmBnd1 O2 CO O2    80.0   126.00
            HrmBnd1 C  CX C8    63.0   111.10
            HrmBnd1 C8 CX H1    50.0   109.50
            HrmBnd1 C8 CX N     80.0   109.70
            HrmBnd1 C8 CX N3    80.0   111.20
            HrmBnd1 HP CX C8    50.0   109.50
            HrmBnd1 C8 N2 CA    50.0   123.20
            HrmBnd1 C8 N2 H     50.0   118.40
            HrmBnd1 C8 N3 H     50.0   109.50
            !
            ! Torsions
            !
            AmbTrs *  C  C  *    0 180   0   0  0.000 14.500  0.000  0.000 4.0
            AmbTrs *  C  CA *    0 180   0   0  0.000 14.500  0.000  0.000 4.0
            AmbTrs *  C  CB *    0 180   0   0  0.000 12.000  0.000  0.000 4.0
            AmbTrs *  C  CM *    0 180   0   0  0.000  8.700  0.000  0.000 4.0
            AmbTrs *  C  CS *    0 180   0   0  0.000  8.700  0.000  0.000 4.0
            AmbTrs *  C  CT *    0   0   0   0  0.000  0.000  0.000  0.000 6.0
            AmbTrs *  C  CX *    0   0   0   0  0.000  0.000  0.000  0.000 6.0
            AmbTrs *  C  N  *    0 180   0   0  0.000 10.000  0.000  0.000 4.0
            AmbTrs *  C  N* *    0 180   0   0  0.000  5.800  0.000  0.000 4.0
            AmbTrs *  C  NA *    0 180   0   0  0.000  5.400  0.000  0.000 4.0
            AmbTrs *  C  NC *    0 180   0   0  0.000  8.000  0.000  0.000 2.0
            AmbTrs *  C  O  *    0 180   0   0  0.000 11.200  0.000  0.000 4.0
            AmbTrs *  C  OH *    0 180   0   0  0.000  4.600  0.000  0.000 2.0
            AmbTrs *  C  OS *    0 180   0   0  0.000  5.400  0.000  0.000 2.0
            AmbTrs *  CA CA *    0 180   0   0  0.000 14.500  0.000  0.000 4.0
            AmbTrs *  CA CB *    0 180   0   0  0.000 14.000  0.000  0.000 4.0
            AmbTrs *  CA CM *    0 180   0   0  0.000 10.200  0.000  0.000 4.0
            AmbTrs *  CA CS *    0 180   0   0  0.000 10.200  0.000  0.000 4.0
            AmbTrs *  CA CN *    0 180   0   0  0.000 14.500  0.000  0.000 4.0
            AmbTrs *  CA CT *    0   0   0   0  0.000  0.000  0.000  0.000 6.0
            AmbTrs *  CA N2 *    0 180   0   0  0.000  9.600  0.000  0.000 4.0
            AmbTrs *  CA NA *    0 180   0   0  0.000  6.000  0.000  0.000 4.0
            AmbTrs *  CA NC *    0 180   0   0  0.000  9.600  0.000  0.000 2.0
            AmbTrs *  CA OH *    0 180   0   0  0.000  1.800  0.000  0.000 2.0
            AmbTrs *  CB CB *    0 180   0   0  0.000 21.800  0.000  0.000 4.0
            AmbTrs *  CB CN *    0 180   0   0  0.000 12.000  0.000  0.000 4.0
            AmbTrs *  CB N* *    0 180   0   0  0.000  6.600  0.000  0.000 4.0
            AmbTrs *  CB NB *    0 180   0   0  0.000  5.100  0.000  0.000 2.0
            AmbTrs *  CB NC *    0 180   0   0  0.000  8.300  0.000  0.000 2.0
            AmbTrs *  CC CT *    0   0   0   0  0.000  0.000  0.000  0.000 6.0
            AmbTrs *  CC CV *    0 180   0   0  0.000 20.600  0.000  0.000 4.0
            AmbTrs *  CC CW *    0 180   0   0  0.000 21.500  0.000  0.000 4.0
            AmbTrs *  CC NA *    0 180   0   0  0.000  5.600  0.000  0.000 4.0
            AmbTrs *  CC NB *    0 180   0   0  0.000  4.800  0.000  0.000 2.0
            AmbTrs *  CD CD *    0 180   0   0  0.000  4.000  0.000  0.000 4.0
            AmbTrs *  CD CT *    0   0   0   0  0.000  0.000  0.000  0.000 6.0
            AmbTrs *  CD CM *    0 180   0   0  0.000 26.600  0.000  0.000 4.0
            AmbTrs *  CD CS *    0 180   0   0  0.000 26.600  0.000  0.000 4.0
            AmbTrs *  CK N* *    0 180   0   0  0.000  6.800  0.000  0.000 4.0
            AmbTrs *  CK NB *    0 180   0   0  0.000 20.000  0.000  0.000 2.0
            AmbTrs *  CP N* *    0 180   0   0  0.000  6.800  0.000  0.000 4.0
            AmbTrs *  CP NB *    0 180   0   0  0.000 20.000  0.000  0.000 2.0
            AmbTrs *  CM CM *    0 180   0   0  0.000 26.600  0.000  0.000 4.0
            AmbTrs *  CM CT *    0   0   0   0  0.000  0.000  0.000  0.000 6.0
            AmbTrs *  CM N* *    0 180   0   0  0.000  7.400  0.000  0.000 4.0
            AmbTrs *  CM OS *    0 180   0   0  0.000  2.100  0.000  0.000 2.0
            AmbTrs *  CS CS *    0 180   0   0  0.000 26.600  0.000  0.000 4.0
            AmbTrs *  CS CT *    0   0   0   0  0.000  0.000  0.000  0.000 6.0
            AmbTrs *  CS N* *    0 180   0   0  0.000  7.400  0.000  0.000 4.0
            AmbTrs *  CS OS *    0 180   0   0  0.000  2.100  0.000  0.000 2.0
            AmbTrs *  CN NA *    0 180   0   0  0.000  6.100  0.000  0.000 4.0
            AmbTrs *  CQ NC *    0 180   0   0  0.000 13.600  0.000  0.000 2.0
            AmbTrs *  CT CT *    0   0   0   0  0.000  0.000  1.400  0.000 9.0
            AmbTrs *  CT CX *    0   0   0   0  0.000  0.000  1.400  0.000 9.0
            AmbTrs *  CT CY *    0   0   0   0  0.000  0.000  0.000  0.000 3.0
            AmbTrs *  CT CZ *    0   0   0   0  0.000  0.000  0.000  0.000 3.0
            AmbTrs *  CT N  *    0   0   0   0  0.000  0.000  0.000  0.000 6.0
            AmbTrs *  CX N  *    0   0   0   0  0.000  0.000  0.000  0.000 6.0
            AmbTrs *  CT N* *    0   0   0   0  0.000  0.000  0.000  0.000 6.0
            AmbTrs *  CT N2 *    0   0   0   0  0.000  0.000  0.000  0.000 6.0
            AmbTrs *  CT NT *    0   0   0   0  0.000  0.000  1.800  0.000 6.0
            AmbTrs *  CT N3 *    0   0   0   0  0.000  0.000  1.400  0.000 9.0
            AmbTrs *  CX N3 *    0   0   0   0  0.000  0.000  1.400  0.000 9.0
            AmbTrs *  CT OH *    0   0   0   0  0.000  0.000  0.500  0.000 3.0
            AmbTrs *  CT OS *    0   0   0   0  0.000  0.000  1.150  0.000 3.0
            AmbTrs *  CT S  *    0   0   0   0  0.000  0.000  1.000  0.000 3.0
            AmbTrs *  CT SH *    0   0   0   0  0.000  0.000  0.750  0.000 3.0
            AmbTrs *  C* CB *    0 180   0   0  0.000  6.700  0.000  0.000 4.0
            AmbTrs *  C* CT *    0   0   0   0  0.000  0.000  0.000  0.000 6.0
            AmbTrs *  C* CW *    0 180   0   0  0.000 26.100  0.000  0.000 4.0
            AmbTrs *  CR NA *    0 180   0   0  0.000  9.300  0.000  0.000 4.0
            AmbTrs *  CR NB *    0 180   0   0  0.000 10.000  0.000  0.000 2.0
            AmbTrs *  CV NB *    0 180   0   0  0.000  4.800  0.000  0.000 2.0
            AmbTrs *  CW NA *    0 180   0   0  0.000  6.000  0.000  0.000 4.0
            AmbTrs *  OH P  *    0   0   0   0  0.000  0.000  0.750  0.000 3.0
            AmbTrs *  OS P  *    0   0   0   0  0.000  0.000  0.750  0.000 3.0
            AmbTrs *  CI OS *    0   0   0   0  0.000  0.000  1.150  0.000 3.0
            AmbTrs *  CI OH *    0   0   0   0  0.000  0.000  0.500  0.000 3.0
            AmbTrs *  CI CT *    0   0   0   0  0.000  0.000  1.400  0.000 9.0
            AmbTrs *  C5 N* *    0 180   0   0  0.000  6.800  0.000  0.000 4.0
            AmbTrs *  C5 NB *    0 180   0   0  0.000 20.000  0.000  0.000 2.0
            AmbTrs *  C  C4 *    0 180   0   0  0.000  8.700  0.000  0.000 4.0
            AmbTrs *  CA C4 *    0 180   0   0  0.000 10.200  0.000  0.000 4.0
            AmbTrs *  C4 C4 *    0 180   0   0  0.000 26.600  0.000  0.000 4.0
            AmbTrs *  C4 CT *    0   0   0   0  0.000  0.000  0.000  0.000 6.0
            AmbTrs *  C4 N* *    0 180   0   0  0.000  7.400  0.000  0.000 4.0
            AmbTrs CT OS CT CI   0 180   0   0  0.000  0.100  0.383  0.000 1.0
            AmbTrs H1 CI CT OS   0   0   0   0  0.250  0.000  0.000  0.000 1.0
            AmbTrs H1 CI CT OH   0   0   0   0  0.250  0.000  0.000  0.000 1.0
            AmbTrs H1 CT CI OS   0   0   0   0  0.250  0.000  0.000  0.000 1.0
            AmbTrs H1 CT CI OH   0   0   0   0  0.250  0.000  0.000  0.000 1.0
            AmbTrs CI CT CT CT 180 180   0   0  0.200  0.250  0.180  0.000 1.0
            AmbTrs OP P  OS CA 180   0 180   0  0.000  0.000  0.000  0.000 1.0
            AmbTrs CC NA P  OP   0   0   0   0  0.000  0.000  0.240  0.000 1.0
            AmbTrs CR NA P  OP   0   0   0   0  0.000  0.000  0.000  0.000 1.0
            AmbTrs OS P  OS CI  31 351 357   0  0.185  1.257  0.355  0.000 1.0
            AmbTrs OH P  OS CI  31 351 357   0  0.185  1.257  0.355  0.000 1.0
            AmbTrs CT CT CI OS 190 295 348   0  1.178  0.092  0.963  0.000 1.0
            AmbTrs CT CT CI OH 190 295 348   0  1.178  0.092  0.963  0.000 1.0
            AmbTrs HC CT C4 C4   0   0 180   0  1.150  0.000  0.380  0.000 1.0
            AmbTrs C4 C4 C  O    0 180   0   0  0.000  2.175  0.300  0.000 1.0
            AmbTrs OS CT N* C5  68  15 171  19  0.966  1.074  0.458  0.309 1.0
            AmbTrs OS CT N* CP  74   6 168   3  0.705  1.065  0.443  0.256 1.0
            AmbTrs OS CT N* C4 146  16 185  32  1.225  1.635  0.937  0.310 1.0
            AmbTrs OS CT N* CS 149  16 179  16  1.025  1.749  0.581  0.351 1.0
            AmbTrs C  N  CX C    0   0   0   0  0.000  0.270  0.420  0.000 1.0
            AmbTrs N  CX C  N  180 180 180   0  0.450  1.580  0.550  0.000 1.0
            AmbTrs CT CT N  C    0   0   0   0  2.000  2.000  0.400  0.000 1.0
            AmbTrs CT CT C  N    0   0   0   0  0.200  0.200  0.400  0.000 1.0
            AmbTrs CT CX C  N    0   0   0   0  0.200  0.200  0.400  0.000 1.0
            AmbTrs CX CT C  N    0   0   0   0  0.200  0.200  0.400  0.000 1.0
            AmbTrs H  N  C  O    0 180   0   0  2.000  2.500  0.000  0.000 1.0
            AmbTrs CT S  S  CT   0   0   0   0  0.000  3.500  0.600  0.000 1.0
            AmbTrs OH P  OS CT   0   0   0   0  0.000  1.200  0.250  0.000 1.0
            AmbTrs OS P  OS CT   0   0   0   0  0.000  1.200  0.250  0.000 1.0
            AmbTrs H1 CT C  O    0   0 180   0  0.800  0.000  0.080  0.000 1.0
            AmbTrs H1 CX C  O    0   0 180   0  0.800  0.000  0.080  0.000 1.0
            AmbTrs HC CT C  O    0   0 180   0  0.800  0.000  0.080  0.000 1.0
            AmbTrs HC CT CT HC   0   0   0   0  0.000  0.000  0.150  0.000 1.0
            AmbTrs HC CT CT CT   0   0   0   0  0.000  0.000  0.160  0.000 1.0
            AmbTrs HC CT CT CX   0   0   0   0  0.000  0.000  0.160  0.000 1.0
            AmbTrs HC CT CM CM   0   0 180   0  1.150  0.000  0.380  0.000 1.0
            AmbTrs HC CT CS CS   0   0 180   0  1.150  0.000  0.380  0.000 1.0
            AmbTrs HO OH CT CT   0   0   0   0  0.250  0.000  0.160  0.000 1.0
            AmbTrs HO OH CT CX   0   0   0   0  0.250  0.000  0.160  0.000 1.0
            AmbTrs HO OH C  O    0 180   0   0  1.900  2.300  0.000  0.000 1.0
            AmbTrs CM CM C  O    0 180   0   0  0.000  2.175  0.300  0.000 1.0
            AmbTrs CT CM CM CT 180 180   0   0  1.900  6.650  0.000  0.000 1.0
            AmbTrs CS CS C  O    0 180   0   0  0.000  2.175  0.300  0.000 1.0
            AmbTrs CT CS CS CT 180 180   0   0  1.900  6.650  0.000  0.000 1.0
            AmbTrs CT CT CT CT 180 180   0   0  0.200  0.250  0.180  0.000 1.0
            AmbTrs CX CT CT CT 180 180   0   0  0.200  0.250  0.180  0.000 1.0
            AmbTrs CT CT NT CT   0 180   0   0  0.000  0.480  0.300  0.000 1.0
            AmbTrs CT CT OS CT   0 180   0   0  0.000  0.100  0.383  0.000 1.0
            AmbTrs CT CT OS C  180   0   0   0  0.800  0.000  0.383  0.000 1.0
            AmbTrs CT OS CT OS 180 180   0   0  1.350  0.850  0.100  0.000 1.0
            AmbTrs CT OS CT N*   0   0   0   0  0.000  0.650  0.383  0.000 1.0
            AmbTrs CT CZ CZ HZ   0   0   0   0  0.000  0.000  0.000  0.000 1.0
            AmbTrs O  C  OS CT 180 180   0   0  1.400  2.700  0.000  0.000 1.0
            AmbTrs OS CT N* CK   0   0   0   0  2.500  0.000  0.000  0.000 1.0
            AmbTrs OS CT N* CM   0   0   0   0  2.500  0.000  0.000  0.000 1.0
            AmbTrs OS CT CT OS   0   0   0   0  0.000  1.175  0.144  0.000 1.0
            AmbTrs OS CT CT OH   0   0   0   0  0.000  1.175  0.144  0.000 1.0
            AmbTrs OH CT CT OH   0   0   0   0  0.000  1.175  0.144  0.000 1.0
            AmbTrs F  CT CT F  180   0   0   0  1.200  0.000  0.000  0.000 1.0
            AmbTrs Cl CT CT Cl 180   0   0   0  0.450  0.000  0.000  0.000 1.0
            AmbTrs Br CT CT Br 180   0   0   0  0.000  0.000  0.000  0.000 1.0
            AmbTrs H1 CT CT OS   0   0   0   0  0.250  0.000  0.000  0.000 1.0
            AmbTrs H1 CT CT OH   0   0   0   0  0.250  0.000  0.000  0.000 1.0
            AmbTrs H1 CX CT OH   0   0   0   0  0.250  0.000  0.000  0.000 1.0
            AmbTrs H1 CT CT F    0   0   0   0  0.190  0.000  0.000  0.000 1.0
            AmbTrs H1 CT CT Cl   0   0   0   0  0.250  0.000  0.000  0.000 1.0
            AmbTrs H1 CT CT Br   0   0   0   0  0.550  0.000  0.000  0.000 1.0
            AmbTrs HC CT CT OS   0   0   0   0  0.250  0.000  0.000  0.000 1.0
            AmbTrs HC CT CT OH   0   0   0   0  0.250  0.000  0.000  0.000 1.0
            AmbTrs HC CT CT F    0   0   0   0  0.190  0.000  0.000  0.000 1.0
            AmbTrs HC CT CT Cl   0   0   0   0  0.250  0.000  0.000  0.000 1.0
            AmbTrs HC CT CT Br   0   0   0   0  0.550  0.000  0.000  0.000 1.0
            AmbTrs H1 CT NT EP   0   0   0   0  0.000  0.000  0.000  0.000 1.0
            AmbTrs CT CT NT EP   0   0   0   0  0.000  0.000  0.000  0.000 1.0
            AmbTrs CT C  N  EP   0 180   0   0  0.000  0.000  0.000  0.000 1.0
            AmbTrs O  C  N  EP   0 180   0   0  0.000  0.000  0.000  0.000 1.0
            AmbTrs H1 CT OH EP   0   0   0   0  0.000  0.000  0.000  0.000 1.0
            AmbTrs CT CT OH EP   0   0   0   0  0.000  0.000  0.000  0.000 1.0
            AmbTrs H1 CT OS EP   0   0   0   0  0.000  0.000  0.000  0.000 1.0
            AmbTrs H2 CT OS EP   0   0   0   0  0.000  0.000  0.000  0.000 1.0
            AmbTrs CT CT OS EP   0   0   0   0  0.000  0.000  0.000  0.000 1.0
            AmbTrs CM CM OS EP   0 180   0   0  0.000  0.000  0.000  0.000 1.0
            AmbTrs HA CM OS EP   0 180   0   0  0.000  0.000  0.000  0.000 1.0
            AmbTrs H4 CM OS EP   0 180   0   0  0.000  0.000  0.000  0.000 1.0
            AmbTrs CS CS OS EP   0 180   0   0  0.000  0.000  0.000  0.000 1.0
            AmbTrs HA CS OS EP   0 180   0   0  0.000  0.000  0.000  0.000 1.0
            AmbTrs H4 CS OS EP   0 180   0   0  0.000  0.000  0.000  0.000 1.0
            AmbTrs N  CT CT OH   0   0   0   0  0.000  1.490  0.156  0.000 1.0
            AmbTrs EP S  S  CT   0   0   0   0  0.000  0.000  0.000  0.000 1.0
            AmbTrs EP S  S  EP   0   0   0   0  0.000  0.000  0.000  0.000 1.0
            AmbTrs C8 CX N  C    0   0   0   0  2.000  1.800  0.800  0.000 1.0
            AmbTrs CT CX N  C    0   0   0   0  2.000  1.800  0.800  0.000 1.0
            AmbTrs N  C  CX C8   0   0   0   0  0.200  0.200  0.400  0.000 1.0
            AmbTrs N  C  CX CT   0   0   0   0  0.200  0.200  0.400  0.000 1.0
            AmbTrs *  C8 C8 *    0   0   0   0  0.000  0.000  1.400  0.000 9.0
            AmbTrs C8 C8 C8 HC   0   0   0   0  0.000  0.000  0.160  0.000 1.0
            AmbTrs CX C8 C8 HC   0   0   0   0  0.000  0.000  0.160  0.000 1.0
            AmbTrs HC C8 C8 HC   0   0   0   0  0.000  0.000  0.150  0.000 1.0
            AmbTrs *  C8 CX *    0   0   0   0  0.000  0.000  1.400  0.000 9.0
            AmbTrs *  C8 N2 *    0   0   0   0  0.000  0.000  0.000  0.000 6.0
            AmbTrs *  C8 N3 *    0   0   0   0  0.000  0.000  1.400  0.000 9.0
            AmbTrs C  CX C8 C8   0   0   0   0  0.000  0.000  1.400  0.000 9.0
            AmbTrs N  CX C8 C8   0   0   0   0  0.000  0.000  1.400  0.000 9.0
            AmbTrs N3 CX C8 C8   0   0   0   0  0.000  0.000  1.400  0.000 9.0
            AmbTrs CX C8 C8 C8 180 180   0   0  0.200  0.250  0.180  0.000 1.0
            AmbTrs C8 C8 C8 N2   0   0   0   0  0.000  0.000  1.400  0.000 9.0
            AmbTrs C8 C8 N2 CA   0   0   0   0  0.000  0.000  0.000  0.000 1.0
            AmbTrs C8 C8 C8 C8 180 180   0   0  0.200  0.250  0.180  0.000 1.0
            AmbTrs C8 C8 C8 N3   0   0   0   0  0.000  0.000  1.400  0.000 9.0
            AmbTrs C8 N2 CA N2   0 180   0   0  0.000  2.400  0.000  0.000 1.0
            AmbTrs H  N2 CA N2   0 180   0   0  0.000  2.400  0.000  0.000 1.0
            AmbTrs C8 C8 N3 H    0   0   0   0  0.000  0.000  1.400  0.000 9.0
            AmbTrs C  CX CT CC 180 180   0   0  0.143  0.244  0.219  0.025 1.0
            AmbTrs N  CX CT CC 180 180   0   0  0.306  0.221  0.219  0.089 1.0
            AmbTrs N3 CX CT CC 180 180   0   0  0.306  0.221  0.219  0.089 1.0
            AmbTrs CX CT CC NA 180 180   0 180  0.160  0.392  0.686  0.037 1.0
            AmbTrs CX CT CC CV 180   0 180 180  0.674  0.750  0.122  0.010 1.0
            AmbTrs CX CT CC NB   0   0   0 180  0.690  0.204  0.740  0.047 1.0
            AmbTrs C  CX CT C* 180 180   0   0  0.017  0.353  0.234  0.074 1.0
            AmbTrs N  CX CT C*   0 180   0   0  0.079  0.313  0.234  0.031 1.0
            AmbTrs N3 CX CT C*   0 180   0   0  0.079  0.313  0.234  0.031 1.0
            AmbTrs CX CT C* CB   0   0   0 180  0.365  0.408  0.819  0.095 1.0
            AmbTrs CX CT C* CW   0   0   0   0  0.000  0.000  0.000  0.000 1.0
            AmbTrs C  CX CT CA   0 180   0 180  0.055  0.469  0.192  0.012 1.0
            AmbTrs N  CX CT CA 180 180   0 180  0.012  0.290  0.192  0.007 1.0
            AmbTrs N3 CX CT CA 180 180   0 180  0.012  0.290  0.192  0.007 1.0
            AmbTrs CX CT CA CA   0 180   0 180  0.000  0.069  0.000  0.048 1.0
            AmbTrs CA C  OH HO   0 180   0   0  0.000  0.883  0.000  0.065 1.0
            !
            ! Improper torsions
            !
            ImpTrs *  *  C  O   10.5  180.0 2.0
            ImpTrs *  O2 C  O2  10.5  180.0 2.0
            ImpTrs *  *  N  H    1.0  180.0 2.0
            ImpTrs *  *  N2 H    1.0  180.0 2.0
            ImpTrs *  *  NA H    1.0  180.0 2.0
            ImpTrs *  N2 CA N2  10.5  180.0 2.0
            ImpTrs *  CT N  CT   1.0  180.0 2.0
            ImpTrs *  CT N  CX   1.0  180.0 2.0
            ImpTrs *  *  CA HA   1.1  180.0 2.0
            ImpTrs *  *  CW H4   1.1  180.0 2.0
            ImpTrs *  *  CR H5   1.1  180.0 2.0
            ImpTrs *  *  CV H4   1.1  180.0 2.0
            ImpTrs *  *  CQ H5   1.1  180.0 2.0
            ImpTrs *  *  CK H5   1.1  180.0 2.0
            ImpTrs *  *  CP H5   1.1  180.0 2.0
            ImpTrs *  *  CM H4   1.1  180.0 2.0
            ImpTrs *  *  CM HA   1.1  180.0 2.0
            ImpTrs *  *  CS H4   1.1  180.0 2.0
            ImpTrs *  *  CS HA   1.1  180.0 2.0
            ImpTrs *  *  CA H4   1.1  180.0 2.0
            ImpTrs *  *  CA H5   1.1  180.0 2.0
            ImpTrs CB CK N* CT   1.0  180.0 2.0
            ImpTrs CB CP N* CT   1.0  180.0 2.0
            ImpTrs C  CM N* CT   1.0  180.0 2.0
            ImpTrs C  CS N* CT   1.0  180.0 2.0
            ImpTrs C  CS CM CT   1.1  180.0 2.0
            ImpTrs CT O  C  OH  10.5  180.0 2.0
            ImpTrs CT CV CC NA   1.1  180.0 2.0
            ImpTrs CT CW CC NB   1.1  180.0 2.0
            ImpTrs CT CW CC NA   1.1  180.0 2.0
            ImpTrs CB CT C* CW   1.1  180.0 2.0
            ImpTrs CA CA CA CT   1.1  180.0 2.0
            ImpTrs C  CM CM CT   1.1  180.0 2.0
            ImpTrs C  CS CS CT   1.1  180.0 2.0
            ImpTrs CM N2 CA NC   1.1  180.0 2.0
            ImpTrs CS N2 CA NC   1.1  180.0 2.0
            ImpTrs CB N2 CA NC   1.1  180.0 2.0
            ImpTrs N2 NA CA NC   1.1  180.0 2.0
            ImpTrs CA CA C  OH   1.1  180.0 2.0
            ImpTrs CA CA CA OH   1.1  180.0 2.0
            ImpTrs H5 O  C  OH   1.1  180.0 2.0
            ImpTrs H5 O  C  OS   1.1  180.0 2.0
            ImpTrs CM CT CM HA   1.1  180.0 2.0
            ImpTrs CS CT CS HA   1.1  180.0 2.0
            ImpTrs Br CA CA CA   1.1  180.0 2.0
            ImpTrs CM H4 C  O    1.1  180.0 2.0
            ImpTrs CS H4 C  O    1.1  180.0 2.0
            ImpTrs C  CT N  H    1.1  180.0 2.0
            ImpTrs C  CX N  H    1.1  180.0 2.0
            ImpTrs C  CT N  O    1.1  180.0 2.0
            ImpTrs *  *  C5 H5   1.1  180.0 2.0
            ImpTrs CB C5 N* CT   1.0  180.0 2.0
            ImpTrs *  *  C4 H4   1.1  180.0 2.0
            ImpTrs *  *  C4 HA   1.1  180.0 2.0
            ImpTrs C  C4 N* CT   1.0  180.0 2.0
            ImpTrs C  C4 C4 CT   1.1  180.0 2.0
            ImpTrs C4 N2 CA NC   1.1  180.0 2.0
            ImpTrs CA CA C  OS   1.1  180.0 2.0
            ImpTrs CR CC NA P    1.1  180.0 2.0
            ImpTrs *  O2 CO O2  10.5  180.0 2.0
            !
            ! Vanderwaals parameters
            !
            VDW H  0.6000  0.0157
            VDW HO 0.0000  0.0000
            VDW HS 0.6000  0.0157
            VDW HC 1.4870  0.0157
            VDW H1 1.3870  0.0157
            VDW H2 1.2870  0.0157
            VDW H3 1.1870  0.0157
            VDW HP 1.1000  0.0157
            VDW HA 1.4590  0.0150
            VDW H4 1.4090  0.0150
            VDW H5 1.3590  0.0150
            VDW HW 0.0000  0.0000
            VDW HZ 1.4590  0.0150
            VDW O  1.6612  0.2100
            VDW O2 1.6612  0.2100
            VDW OW 1.7683  0.1520
            VDW OH 1.7210  0.2104
            VDW OS 1.6837  0.1700
            VDW OP 1.8500  0.1700
            VDW C* 1.9080  0.0860
            VDW CB 1.9080  0.0860
            VDW CC 1.9080  0.0860
            VDW CD 1.9080  0.0860
            VDW CK 1.9080  0.0860
            VDW CM 1.9080  0.0860
            VDW CN 1.9080  0.0860
            VDW CQ 1.9080  0.0860
            VDW CR 1.9080  0.0860
            VDW CV 1.9080  0.0860
            VDW CW 1.9080  0.0860
            VDW CY 1.9080  0.0860
            VDW CZ 1.9080  0.0860
            VDW CP 1.9080  0.0860
            VDW CS 1.9080  0.0860
            VDW CI 1.9080  0.1094
            VDW C5 1.9080  0.0860
            VDW C4 1.9080  0.0860
            VDW CT 1.9080  0.1094
            VDW CX 1.9080  0.1094
            VDW C  1.9080  0.0860
            VDW N  1.8240  0.1700
            VDW NA 1.8240  0.1700
            VDW N2 1.8240  0.1700
            VDW N* 1.8240  0.1700
            VDW NC 1.8240  0.1700
            VDW NB 1.8240  0.1700
            VDW NT 1.8240  0.1700
            VDW NY 1.8240  0.1700
            VDW N3 1.8240  0.1700
            VDW S  2.0000  0.2500
            VDW SH 2.0000  0.2500
            VDW P  2.1000  0.2000
            VDW MG 0.7926  0.8947
            VDW C0 1.7131  0.459789
            VDW Zn 1.10    0.0125
            VDW F  1.75    0.061
            VDW Cl 1.948   0.265
            VDW Br 2.22    0.320
            VDW I  2.35    0.40
            VDW EP 0.00    0.0000
            VDW C8 1.9080  0.1094
            VDW CO 1.9080  0.0860
 Initial command:
 /share/apps/gaussian//g16/l1.exe "/tmp/123977.mgr/Gau-357232.inp" -scrdir="/tmp/123977.mgr/"
 Entering Link 1 = /share/apps/gaussian//g16/l1.exe PID=    357233.
  
 Copyright (c) 1988-2017, Gaussian, Inc.  All Rights Reserved.
  
 This is part of the Gaussian(R) 16 program.  It is based on
 the Gaussian(R) 09 system (copyright 2009, Gaussian, Inc.),
 the Gaussian(R) 03 system (copyright 2003, Gaussian, Inc.),
 the Gaussian(R) 98 system (copyright 1998, Gaussian, Inc.),
 the Gaussian(R) 94 system (copyright 1995, Gaussian, Inc.),
 the Gaussian 92(TM) system (copyright 1992, Gaussian, Inc.),
 the Gaussian 90(TM) system (copyright 1990, Gaussian, Inc.),
 the Gaussian 88(TM) system (copyright 1988, Gaussian, Inc.),
 the Gaussian 86(TM) system (copyright 1986, Carnegie Mellon
 University), and the Gaussian 82(TM) system (copyright 1983,
 Carnegie Mellon University). Gaussian is a federally registered
 trademark of Gaussian, Inc.
  
 This software contains proprietary and confidential information,
 including trade secrets, belonging to Gaussian, Inc.
  
 This software is provided under written license and may be
 used, copied, transmitted, or stored only in accord with that
 written license.
  
 The following legend is applicable only to US Government
 contracts under FAR:
  
                    RESTRICTED RIGHTS LEGEND
  
 Use, reproduction and disclosure by the US Government is
 subject to restrictions as set forth in subparagraphs (a)
 and (c) of the Commercial Computer Software - Restricted
 Rights clause in FAR 52.227-19.
  
 Gaussian, Inc.
 340 Quinnipiac St., Bldg. 40, Wallingford CT 06492
  
  
 ---------------------------------------------------------------
 Warning -- This program may not be used in any manner that
 competes with the business of Gaussian, Inc. or will provide
 assistance to any competitor of Gaussian, Inc.  The licensee
 of this program is prohibited from giving any competitor of
 Gaussian, Inc. access to this program.  By using this program,
 the user acknowledges that Gaussian, Inc. is engaged in the
 business of creating and licensing software in the field of
 computational chemistry and represents and warrants to the
 licensee that it is not a competitor of Gaussian, Inc. and that
 it will not use this program in any manner prohibited above.
 ---------------------------------------------------------------
  

 Cite this work as:
 Gaussian 16, Revision B.01,
 M. J. Frisch, G. W. Trucks, H. B. Schlegel, G. E. Scuseria, 
 M. A. Robb, J. R. Cheeseman, G. Scalmani, V. Barone, 
 G. A. Petersson, H. Nakatsuji, X. Li, M. Caricato, A. V. Marenich, 
 J. Bloino, B. G. Janesko, R. Gomperts, B. Mennucci, H. P. Hratchian, 
 J. V. Ortiz, A. F. Izmaylov, J. L. Sonnenberg, D. Williams-Young, 
 F. Ding, F. Lipparini, F. Egidi, J. Goings, B. Peng, A. Petrone, 
 T. Henderson, D. Ranasinghe, V. G. Zakrzewski, J. Gao, N. Rega, 
 G. Zheng, W. Liang, M. Hada, M. Ehara, K. Toyota, R. Fukuda, 
 J. Hasegawa, M. Ishida, T. Nakajima, Y. Honda, O. Kitao, H. Nakai, 
 T. Vreven, K. Throssell, J. A. Montgomery, Jr., J. E. Peralta, 
 F. Ogliaro, M. J. Bearpark, J. J. Heyd, E. N. Brothers, K. N. Kudin, 
 V. N. Staroverov, T. A. Keith, R. Kobayashi, J. Normand, 
 K. Raghavachari, A. P. Rendell, J. C. Burant, S. S. Iyengar, 
 J. Tomasi, M. Cossi, J. M. Millam, M. Klene, C. Adamo, R. Cammi, 
 J. W. Ochterski, R. L. Martin, K. Morokuma, O. Farkas, 
 J. B. Foresman, and D. J. Fox, Gaussian, Inc., Wallingford CT, 2016.
 
 ******************************************
 Gaussian 16:  ES64L-G16RevB.01 20-Dec-2017
                 9-Jan-2024 
 ******************************************
 %mem=24GB
 %nprocshared=12
 Will use up to   12 processors via shared memory.
 ----------------------------------------------------------------------
 # oniom(wb97xd/6-31g(d):amber=softfirst) nosymm geom=connectivity forc
 e punch=(coord,derivatives)
 ----------------------------------------------------------------------
 1/18=1000020,30=1,38=1,52=2,56=2,57=2,61=3,64=203/1,3;
 2/12=2,15=1,17=6,18=5,40=1/2;
 1/18=1000020,30=1,38=1,52=2,53=3172,61=3,64=203/20;
 3/5=30,11=9,25=1,30=1,41=10300000,43=2,71=1/1;
 4/20=11,22=1,24=3/2;
 7/7=1,30=1,33=-1,44=-1/16;
 1/18=1000020,30=1,52=2,53=2032,61=3/20;
 3/5=1,6=6,7=1,11=2,25=1,30=1,71=1,74=-58/1,2,3;
 4//1;
 5/5=2,38=5/2;
 6/7=2,8=2,9=2,10=2,28=1/1;
 7/7=1,30=1,33=-1/1,2,3,16;
 1/18=1000020,30=1,52=2,53=1022,61=3,64=203/20;
 3/5=30,11=9,25=1,30=1,41=10300000,43=2,71=1/1;
 4/20=11,22=1,24=3/2;
 7/7=1,30=1,33=-1,44=-1/16;
 1/18=1000020,30=1,52=2,53=3015,61=3,64=203/20;
 7/9=1,44=-1,126=2/16;
 1/18=1000020,30=1,52=2,61=3,64=203/3;
 99/10=6/99;
 -------------------
 Title Card Required
 -------------------
 Symbolic Z-matrix:
 Charge =-12 Multiplicity = 1 for low   level calculation on real  system.
 Charge =  1 Multiplicity = 1 for high  level calculation on model system.
 Charge =  1 Multiplicity = 1 for low   level calculation on model system.
 N-N3-0.180100        -1    24.459   -8.075    -92.964   L 
 C-CT-0.036800        -1    24.101   -9.314    -92.209   L 
 C-C-0.616300         -1    25.077   -9.506    -91.048   L 
 O-O--0.572200        -1    26.284   -9.654    -91.246   L 
 C-CT--0.028300       -1    24.127   -10.523   -93.151   L 
 C-C-0.583300         -1    23.898   -11.837   -92.426   L 
 O-O--0.574400        -1    24.817   -12.4     -91.829   L 
 N-N--0.863400        -1    22.664   -12.33    -92.47    L 
 H-H-0.192100         -1    24.39322  -7.24147  -92.40136  L 
 H-HP-0.123100        -1    23.09085  -9.22246  -91.80791  L 
 H-HC-0.051500        -1    23.45278  -10.4097  -93.98198  L 
 H-HC-0.051500        -1    25.11811  -10.59278  -93.60154  L 
 H-H-0.409700         -1    21.9776  -11.91592  -93.08864  L 
 H-H-0.409700         -1    22.49274  -13.24517  -92.06793  L 
 H-H-0.192100         -1    25.40125  -8.1277   -93.33201  L 
 H-H-0.192100         -1    23.85445  -7.95925  -93.76961  L 
 N-N--0.347900        -1    24.541   -9.499    -89.835   L 
 C-CT--0.240000       -1    25.345   -9.63     -88.629   L 
 C-C-0.734100         -1    26.324   -10.793   -88.613   L 
 O-O--0.589400        -1    27.476   -10.603   -88.247   L 
 C-CT--0.009400       -1    24.432   -9.71     -87.399   L 
 C-CT-0.018700        -1    25.161   -9.727    -86.063   L 
 C-CT--0.047900       -1    26.016   -8.473    -85.87    L 
 C-CT--0.014300       -1    26.495   -8.372    -84.424   L 
 N-N3--0.385400       -1    27.056   -7.035    -84.093   L 
 H-H-0.274700         -1    23.52917  -9.58534  -89.74535  L 
 H-H1-0.142600        -1    25.96551  -8.73702  -88.56136  L 
 H-HC-0.036200        -1    23.74559  -8.86114  -87.41189  L 
 H-HC-0.036200        -1    23.82935  -10.61777  -87.45977  L 
 H-HC-0.010300        -1    24.40868  -9.76915  -85.2738  L 
 H-HC-0.010300        -1    25.78617  -10.61707  -85.97898  L 
 H-HC-0.062100        -1    26.88204  -8.50162  -86.53358  L 
 H-HC-0.062100        -1    25.41023  -7.59702  -86.11007  L 
 H-HP-0.113500        -1    25.64334  -8.58733  -83.7691  L 
 H-HP-0.113500        -1    27.2396  -9.1587   -84.25518  L 
 H-H-0.340000         -1    26.36092  -6.31263  -84.23243  L 
 H-H-0.340000         -1    27.37023  -7.00498  -83.13092  L 
 H-H-0.340000         -1    27.84768  -6.83077  -84.69252  L 
 N-N--0.415700        -1    25.879   -11.991   -88.987   L 
 C-CT--0.059700       -1    26.768   -13.16    -88.984   L 
 C-C-0.597300         -1    28.048   -12.91    -89.786   L 
 O-O--0.567900        -1    29.151   -13.251   -89.35    L 
 C-CT-0.130300        -1    26.066   -14.429   -89.541   L 
 C-CT--0.043000       -1    25.069   -14.972   -88.515   L 
 C-CT--0.320400       -1    27.099   -15.515   -89.864   L 
 C-CT--0.066000       -1    23.838   -14.119   -88.341   L 
 H-H-0.271900         -1    24.94654  -12.08305  -89.36569  L 
 H-H1-0.086900        -1    27.08638  -13.36914  -87.96269  L 
 H-HC-0.018700        -1    25.54096  -14.19714  -90.4562  L 
 H-HC-0.023600        -1    24.72721  -15.95071  -88.8571  L 
 H-HC-0.023600        -1    25.55759  -15.10736  -87.55003  L 
 H-HC-0.088200        -1    26.57793  -16.43177  -90.13587  L 
 H-HC-0.088200        -1    27.70604  -15.24475  -90.72958  L 
 H-HC-0.088200        -1    27.74079  -15.7137  -89.00472  L 
 H-HC-0.018600        -1    23.45792  -13.79783  -89.3115  L 
 H-HC-0.018600        -1    23.06606  -14.70895  -87.8457  L 
 H-HC-0.018600        -1    24.04908  -13.25535  -87.7128  L 
 N-N--0.415700        -1    27.894   -12.314   -90.959   L 
 C-CT--0.087500       -1    29.045   -12.009   -91.788   L 
 C-C-0.597300         -1    29.996   -11.071   -91.032   L 
 O-O--0.567900        -1    31.196   -11.331   -90.956   L 
 C-CT-0.298500        -1    28.606   -11.373   -93.135   L 
 C-CT--0.319200       -1    29.825   -11.022   -93.968   L 
 C-CT--0.319200       -1    27.712   -12.355   -93.905   L 
 H-H-0.271900         -1    26.95622  -12.15713  -91.31362  L 
 H-H1-0.096900        -1    29.59334  -12.92681  -92.00844  L 
 H-HC--0.029700       -1    28.04577  -10.45705  -92.95281  L 
 H-HC-0.079100        -1    30.43575  -10.2626  -93.48251  L 
 H-HC-0.079100        -1    30.42701  -11.91464  -94.14893  L 
 H-HC-0.079100        -1    29.49535  -10.62593  -94.92805  L 
 H-HC-0.079100        -1    27.54212  -11.97314  -94.90746  L 
 H-HC-0.079100        -1    28.21044  -13.32073  -93.99528  L 
 H-HC-0.079100        -1    26.75643  -12.49474  -93.41096  L 
 N-N--0.415700        -1    29.464   -9.995    -90.456   L 
 C-CT--0.024900       -1    30.303   -9.054    -89.709   L 
 C-C-0.597300         -1    31.036   -9.78     -88.61    L 
 O-O--0.567900        -1    32.222   -9.539    -88.372   L 
 C-CT-0.211700        -1    29.467   -7.951    -89.063   L 
 O-OH--0.654600       -1    28.899   -7.117    -90.042   L 
 H-H-0.271900         -1    28.47559  -9.81433  -90.58284  L 
 H-H1-0.084300        -1    31.04238  -8.60634  -90.37383  L 
 H-H1-0.035200        -1    28.67537  -8.38555  -88.45371  L 
 H-H1-0.035200        -1    30.1099  -7.3456   -88.42176  L 
 H-HO-0.427500        -1    29.59791  -6.8303   -90.64355  L 
 N-N--0.415700        -1    30.311   -10.666   -87.938   L 
 C-CT-0.018800        -1    30.867   -11.436   -86.844   L 
 C-C-0.597300         -1    32.013   -12.308   -87.351   L 
 O-O--0.567900        -1    33.088   -12.334   -86.755   L 
 C-CT--0.046200       -1    29.777   -12.297   -86.216   L 
 C-CC--0.026600       -1    30.155   -12.868   -84.892   L 
 N-NA--0.381100       -1    30.542   -12.08    -83.831   L 
 C-CV-0.129200        -1    30.227   -14.15    -84.46    L 
 C-CR-0.205700        -1    30.842   -12.852   -82.801   L 
 N-NB--0.572700       -1    30.659   -14.113   -83.155   L 
 H-H-0.271900         -1    29.36009  -10.85014  -88.2402  L 
 H-H1-0.088100        -1    31.26841  -10.75828  -86.09392  L 
 H-HC-0.040200        -1    28.88474  -11.68799  -86.06784  L 
 H-HC-0.040200        -1    29.51045  -13.11682  -86.88097  L 
 H-H-0.364900         -1    30.74592  -11.09917  -83.88089  L 
 H-H4-0.114700        -1    30.02021  -15.04013  -85.03822  L 
 H-H5-0.139200        -1    31.23943  -12.52716  -81.84785  L 
 N-N--0.415700        -1    31.788   -13.007   -88.459   L 
 C-CT--0.051800       -1    32.815   -13.872   -89.029   L 
 C-C-0.597300         -1    34.022   -13.05    -89.445   L 
 O-O--0.567900        -1    35.166   -13.469   -89.265   L 
 C-CT--0.110200       -1    32.258   -14.644   -90.227   L 
 C-CT-0.353100        -1    31.159   -15.648   -89.866   L 
 C-CT--0.412100       -1    30.686   -16.36    -91.12    L 
 C-CT--0.412100       -1    31.687   -16.642   -88.841   L 
 H-H-0.271900         -1    30.87991  -12.9657  -88.90815  L 
 H-H1-0.092200        -1    33.18036  -14.56635  -88.2723  L 
 H-HC-0.045700        -1    31.86955  -13.94239  -90.96576  L 
 H-HC-0.045700        -1    33.07436  -15.19998  -90.68192  L 
 H-HC--0.036100       -1    30.30949  -15.1814  -89.40649  L 
 H-HC-0.100000        -1    31.51074  -16.93358  -91.53753  L 
 H-HC-0.100000        -1    29.86895  -17.03652  -90.87383  L 
 H-HC-0.100000        -1    30.33682  -15.63299  -91.85417  L 
 H-HC-0.100000        -1    31.81537  -16.16689  -87.8703  L 
 H-HC-0.100000        -1    30.96886  -17.45262  -88.72598  L 
 H-HC-0.100000        -1    32.63575  -17.06179  -89.17949  L 
 N-N--0.415700        -1    33.764   -11.872   -89.997   L 
 C-CT--0.051800       -1    34.839   -10.99    -90.405   L 
 C-C-0.597300         -1    35.734   -10.608   -89.226   L 
 O-O--0.567900        -1    36.96    -10.624   -89.356   L 
 C-CT--0.110200       -1    34.275   -9.725    -91.049   L 
 C-CT-0.353100        -1    34.091   -9.754    -92.565   L 
 C-CT--0.412100       -1    33.491   -8.432    -93.03    L 
 C-CT--0.412100       -1    35.444   -9.988    -93.238   L 
 H-H-0.271900         -1    32.80241  -11.62802  -90.2016  L 
 H-H1-0.092200        -1    35.4848  -11.52511  -91.0974  L 
 H-HC-0.045700        -1    33.31572  -9.48357  -90.60043  L 
 H-HC-0.045700        -1    34.94766  -8.89509  -90.82573  L 
 H-HC--0.036100       -1    33.41525  -10.56299  -92.84211  L 
 H-HC-0.100000        -1    34.0342  -7.59211  -92.60058  L 
 H-HC-0.100000        -1    33.58807  -8.35817  -94.10419  L 
 H-HC-0.100000        -1    32.43886  -8.38023  -92.75804  L 
 H-HC-0.100000        -1    35.78106  -11.00938  -93.0855  L 
 H-HC-0.100000        -1    35.32932  -9.84226  -94.31373  L 
 H-HC-0.100000        -1    36.17889  -9.27714  -92.86254  L 
 N-N--0.415700        -1    35.145   -10.264   -88.079   L 
 C-CT--0.087500       -1    35.977   -9.882    -86.935   L 
 C-C-0.597300         -1    36.598   -11.065   -86.203   L 
 O-O--0.567900        -1    37.593   -10.908   -85.508   L 
 C-CT-0.298500        -1    35.223   -8.976    -85.905   L 
 C-CT--0.319200       -1    34.886   -7.655    -86.539   L 
 C-CT--0.319200       -1    33.979   -9.668    -85.383   L 
 H-H-0.271900         -1    34.13554  -10.29836  -88.00853  L 
 H-H1-0.096900        -1    36.82583  -9.29818  -87.29423  L 
 H-HC--0.029700       -1    35.87593  -8.77876  -85.0544  L 
 H-HC-0.079100        -1    34.54186  -7.83032  -87.54391  L 
 H-HC-0.079100        -1    34.13465  -7.12244  -85.95788  L 
 H-HC-0.079100        -1    35.79117  -7.04986  -86.5958  L 
 H-HC-0.079100        -1    34.23379  -10.63542  -84.95039  L 
 H-HC-0.079100        -1    33.52913  -9.05331  -84.60576  L 
 H-HC-0.079100        -1    33.26541  -9.80112  -86.18391  L 
 N-N--0.415700        -1    36.024   -12.251   -86.36    L 
 C-CT-0.033700        -1    36.589   -13.44    -85.714   L 
 C-C-0.597300         -1    37.657   -14.08    -86.606   L 
 O-O--0.567900        -1    38.242   -15.086   -86.247   L 
 C-CT--0.182500       -1    35.482   -14.467   -85.4     L 
 H-H-0.271900         -1    35.1736  -12.33673  -86.9004  L 
 H-H1-0.082300        -1    37.07737  -13.16761  -84.77702  L 
 H-HC-0.060300        -1    35.00631  -14.79437  -86.32569  L 
 H-HC-0.060300        -1    35.91316  -15.33111  -84.89357  L 
 H-HC-0.060300        -1    34.7319  -14.01249  -84.75252  L 
 N-N--0.516300        -1    37.905   -13.493   -87.772   L 
 C-CT-0.039700        -1    38.904   -14.028   -88.695   L 
 C-C-0.536600         -1    40.315   -13.975   -88.072   L 
 O-O--0.581900        -1    40.788   -12.911   -87.659   L 
 C-CT-0.056000        -1    38.875   -13.242   -90.014   L 
 C-CT-0.013600        -1    39.811   -13.78    -91.098   L 
 C-C-0.805400         -1    39.38    -15.142   -91.66    L 
 O-O2--0.818800       -1    40.108   -15.681   -92.521   L 
 O-O2--0.818800       -1    38.323   -15.677   -91.251   L 
 H-H-0.293600         -1    37.42681  -12.63835  -88.0126  L 
 H-H1-0.110500        -1    38.59523  -15.03454  -88.93912  L 
 H-HC--0.017300       -1    37.85638  -13.22392  -90.40556  L 
 H-HC--0.017300       -1    39.16273  -12.21021  -89.80935  L 
 H-HC--0.042500       -1    39.83336  -13.06115  -91.90449  L 
 H-HC--0.042500       -1    40.82765  -13.84794  -90.70931  L 
 N-N--0.254800        -1    40.993   -15.133   -87.989   L 
 C-CT--0.026600       -1    42.338   -15.293   -87.434   L 
 C-C-0.589600         -1    43.438   -14.514   -88.159   L 
 O-O--0.574800        -1    43.416   -14.374   -89.385   L 
 C-CT--0.007000       -1    42.566   -16.792   -87.53    L 
 C-CT-0.018900        -1    41.212   -17.349   -87.395   L 
 C-CT-0.019200        -1    40.419   -16.452   -88.298   L 
 H-H1-0.064100        -1    42.31308  -14.98953  -86.3868  L 
 H-HC-0.025300        -1    43.01908  -17.07428  -88.48313  L 
 H-HC-0.025300        -1    43.19961  -17.00737  -86.68633  L 
 H-HC-0.021300        -1    41.16127  -18.3847  -87.73026  L 
 H-HC-0.021300        -1    40.86246  -17.25481  -86.36483  L 
 H-H1-0.039100        -1    40.58471  -16.70664  -89.34606  L 
 H-H1-0.039100        -1    39.37238  -16.55684  -88.02228  L 
 N-N--0.516300        -1    44.401   -14.021   -87.386   L 
 C-CT-0.039700        -1    45.53    -13.271   -87.921   L 
 C-C-0.536600         -1    46.424   -14.17    -88.784   L 
 O-O--0.581900        -1    46.416   -15.394   -88.638   L 
 C-CT-0.056000        -1    46.359   -12.708   -86.767   L 
 C-CT-0.013600        -1    45.594   -11.814   -85.82    L 
 C-C-0.805400         -1    45.364   -10.439   -86.399   L 
 O-O2--0.818800       -1    46.347   -9.826    -86.865   L 
 O-O2--0.818800       -1    44.208   -9.967    -86.383   L 
 H-H-0.293600         -1    44.32077  -14.12156  -86.38922  L 
 H-H1-0.110500        -1    45.1645  -12.44419  -88.5325  L 
 H-HC--0.017300       -1    46.73755  -13.55179  -86.18686  L 
 H-HC--0.017300       -1    47.22822  -12.1818  -87.16303  L 
 H-HC--0.042500       -1    44.65261  -12.27982  -85.51873  L 
 H-HC--0.042500       -1    46.19136  -11.70552  -84.91078  L 
 N-N--0.347900        -1    47.206   -13.558   -89.669   L 
 C-CT--0.240000       -1    48.109   -14.313   -90.54    L 
 C-C-0.734100         -1    49.16    -15.086   -89.756   L 
 O-O--0.589400        -1    49.659   -14.612   -88.737   L 
 C-CT--0.009400       -1    48.811   -13.379   -91.535   L 
 C-CT-0.018700        -1    48.04    -13.163   -92.83    L 
 C-CT--0.047900       -1    48.835   -12.309   -93.823   L 
 C-CT--0.014300       -1    48.121   -12.225   -95.172   L 
 N-N3--0.385400       -1    48.801   -11.291   -96.115   L 
 H-H-0.274700         -1    47.22062  -12.54896  -89.67748  L 
 H-H1-0.142600        -1    47.52673  -15.055   -91.08763  L 
 H-HC-0.036200        -1    49.01253  -12.41701  -91.05914  L 
 H-HC-0.036200        -1    49.77621  -13.81251  -91.79947  L 
 H-HC-0.010300        -1    47.83269  -14.13395  -93.28369  L 
 H-HC-0.010300        -1    47.09238  -12.67057  -92.60701  L 
 H-HC-0.062100        -1    49.04823  -11.3221  -93.41005  L 
 H-HC-0.062100        -1    49.73011  -12.87835  -93.95873  L 
 H-HP-0.113500        -1    48.10108  -13.2314  -95.60358  L 
 H-HP-0.113500        -1    47.08875  -11.9058  -95.0048  L 
 H-H-0.340000         -1    48.39921  -11.35349  -97.04552  L 
 H-H-0.340000         -1    48.84251  -10.34658  -95.77081  L 
 H-H-0.340000         -1    49.76842  -11.63107  -96.22343  L 
 N-N--0.415700        -1    49.481   -16.283   -90.239   L 
 C-CT--0.059700       -1    50.484   -17.142   -89.613   L 
 C-C-0.597300         -1    51.668   -17.272   -90.551   L 
 O-O--0.567900        -1    51.493   -17.358   -91.762   L 
 C-CT-0.130300        -1    49.944   -18.575   -89.347   L 
 C-CT--0.043000       -1    49.171   -18.621   -88.032   L 
 C-CT--0.320400       -1    51.091   -19.571   -89.297   L 
 C-CT--0.066000       -1    48.664   -20.017   -87.685   L 
 H-H-0.271900         -1    49.03109  -16.59812  -91.08418  L 
 H-H1-0.086900        -1    50.83842  -16.71625  -88.67369  L 
 H-HC-0.018700        -1    49.28054  -18.86824  -90.16388  L 
 H-HC-0.023600        -1    49.7995  -18.26268  -87.21556  L 
 H-HC-0.023600        -1    48.31068  -17.95477  -88.11618  L 
 H-HC-0.088200        -1    50.73175  -20.57403  -89.07707  L 
 H-HC-0.088200        -1    51.58822  -19.67785  -90.2584  L 
 H-HC-0.088200        -1    51.78946  -19.26976  -88.52414  L 
 H-HC-0.018600        -1    49.47213  -20.64507  -87.3137  L 
 H-HC-0.018600        -1    47.91716  -19.93864  -86.89504  L 
 H-HC-0.018600        -1    48.20076  -20.47873  -88.55608  L 
 N-N--0.415700        -1    52.872   -17.288   -89.993   L 
 C-CT--0.001400       -1    54.075   -17.441   -90.804   L 
 C-C-0.597300         -1    54.493   -18.91    -90.832   L 
 O-O--0.567900        -1    54.318   -19.638   -89.849   L 
 C-CT--0.015200       -1    55.205   -16.579   -90.252   L 
 C-CA--0.001100       -1    55.079   -15.115   -90.605   L 
 C-CA--0.190600       -1    54.639   -14.183   -89.669   L 
 C-CA--0.190600       -1    55.436   -14.659   -91.873   L 
 C-CA--0.234100       -1    54.566   -12.819   -89.993   L 
 C-CA--0.234100       -1    55.365   -13.306   -92.209   L 
 C-C-0.322600         -1    54.935   -12.389   -91.269   L 
 O-OH--0.557900       -1    54.889   -11.046   -91.603   L 
 H-H-0.271900         -1    52.95662  -17.18444  -88.99684  L 
 H-H1-0.087600        -1    53.8969  -17.13236  -91.83646  L 
 H-HC-0.029500        -1    55.25734  -16.68834  -89.16985  L 
 H-HC-0.029500        -1    56.15093  -16.93241  -90.66552  L 
 H-HA-0.169900        -1    54.35808  -14.5105  -88.67848  L 
 H-HA-0.169900        -1    55.78755  -15.37159  -92.60726  L 
 H-HA-0.165600        -1    54.22854  -12.09126  -89.27229  L 
 H-HA-0.165600        -1    55.65567  -12.97639  -93.19495  L 
 H-HO-0.399200        -1    54.96819  -10.94118  -92.55243  L 
 N-N--0.415700        -1    55.033   -19.349   -91.964   L 
 C-CT-0.033700        -1    55.448   -20.739   -92.105   L 
 C-C-0.597300         -1    56.854   -20.955   -91.567   L 
 O-O--0.567900        -1    57.176   -22.031   -91.083   L 
 C-CT--0.182500       -1    55.371   -21.166   -93.565   L 
 H-H-0.271900         -1    55.20652  -18.71113  -92.74404  L 
 H-H1-0.082300        -1    54.77455  -21.39398  -91.5565  L 
 H-HC-0.060300        -1    56.10373  -20.59951  -94.13722  L 
 H-HC-0.060300        -1    55.5839  -22.23154  -93.65275  L 
 H-HC-0.060300        -1    54.37704  -20.96502  -93.96024  L 
 N-N--0.415700        -1    57.684   -19.922   -91.639   L 
 C-CT--0.023700       -1    59.058   -20.023   -91.156   L 
 C-C-0.597300         -1    59.755   -21.315   -91.584   L 
 O-O--0.567900        -1    60.069   -22.175   -90.75    L 
 C-CT-0.034200        -1    59.097   -19.912   -89.627   L 
 C-CT-0.001800        -1    58.77    -18.521   -89.107   L 
 S-S--0.273700        -1    58.426   -18.539   -87.336   L 
 C-CT--0.053600       -1    56.694   -18.964   -87.35    L 
 H-H-0.271900         -1    57.39631  -19.06798  -92.11226  L 
 H-H1-0.088000        -1    59.6324  -19.19237  -91.56629  L 
 H-HC-0.024100        -1    58.40568  -20.63423  -89.19113  L 
 H-HC-0.024100        -1    60.09942  -20.15034  -89.26702  L 
 H-H1-0.044000        -1    59.62037  -17.86703  -89.30168  L 
 H-H1-0.044000        -1    57.90243  -18.12271  -89.6323  L 
 H-H1-0.068400        -1    56.33304  -19.04206  -86.32498  L 
 H-H1-0.068400        -1    56.13181  -18.19752  -87.8762  L 
 H-H1-0.068400        -1    56.55692  -19.92322  -87.85115  L 
 N-N--0.254800        -1    59.986   -21.48    -92.897   L 
 C-CT--0.026600       -1    60.662   -22.683   -93.39    L 
 C-C-0.589600         -1    62.075   -22.667   -92.815   L 
 O-O--0.574800        -1    62.72    -21.62    -92.813   L 
 C-CT--0.007000       -1    60.642   -22.485   -94.903   L 
 C-CT-0.018900        -1    60.652   -21.      -95.05    L 
 C-CT-0.019200        -1    59.658   -20.574   -94.01    L 
 H-H1-0.064100        -1    60.13434  -23.59089  -93.09853  L 
 H-HC-0.025300        -1    61.5065  -22.94322  -95.38523  L 
 H-HC-0.025300        -1    59.72089  -22.8913  -95.32028  L 
 H-HC-0.021300        -1    61.63733  -20.58448  -94.84572  L 
 H-HC-0.021300        -1    60.32472  -20.70022  -96.046   L 
 H-H1-0.039100        -1    59.80321  -19.52378  -93.75405  L 
 H-H1-0.039100        -1    58.63798  -20.7505  -94.35637  L 
 N-N--0.516300        -1    62.549   -23.807   -92.317   L 
 C-CT-0.038100        -1    63.887   -23.862   -91.722   L 
 C-C-0.536600         -1    64.952   -23.42    -92.725   L 
 O-O--0.581900        -1    65.181   -24.08    -93.743   L 
 C-CT--0.030300       -1    64.205   -25.268   -91.218   L 
 C-C-0.799400         -1    65.373   -25.281   -90.265   L 
 O-O2--0.801400       -1    66.365   -24.578   -90.542   L 
 O-O2--0.801400       -1    65.305   -25.986   -89.238   L 
 H-H-0.293600         -1    61.97116  -24.63802  -92.32911  L 
 H-H1-0.088000        -1    63.86943  -23.21247  -90.8501  L 
 H-HC--0.012200       -1    63.32855  -25.64697  -90.68806  L 
 H-HC--0.012200       -1    64.39023  -25.93425  -92.05807  L 
 N-N--0.254800        -1    65.636   -22.302   -92.434   L 
 C-CT--0.026600       -1    66.672   -21.768   -93.317   L 
 C-C-0.589600         -1    67.984   -22.563   -93.346   L 
 O-O--0.574800        -1    68.781   -22.403   -94.268   L 
 C-CT--0.007000       -1    66.849   -20.349   -92.794   L 
 C-CT-0.018900        -1    66.707   -20.54    -91.329   L 
 C-CT-0.019200        -1    65.537   -21.502   -91.198   L 
 H-H1-0.064100        -1    66.29267  -21.72183  -94.33684  L 
 H-HC-0.025300        -1    67.78824  -19.90526  -93.09568  L 
 H-HC-0.025300        -1    66.032   -19.72468  -93.15827  L 
 H-HC-0.021300        -1    67.61028  -20.99155  -90.91638  L 
 H-HC-0.021300        -1    66.49656  -19.59671  -90.82404  L 
 H-H1-0.039100        -1    65.65036  -22.11009  -90.29966  L 
 H-H1-0.039100        -1    64.59642  -20.95061  -91.17506  L 
 N-N--0.415700        -1    68.213   -23.419   -92.356   L 
 C-CT--0.038900       -1    69.444   -24.199   -92.352   L 
 C-C-0.597300         -1    69.281   -25.499   -93.12    L 
 O-O--0.567900        -1    70.268   -26.112   -93.535   L 
 C-CT-0.365400        -1    69.913   -24.533   -90.92    L 
 O-OH--0.676100       -1    68.922   -25.332   -90.266   L 
 C-CT--0.243800       -1    70.14    -23.26    -90.127   L 
 H-H-0.271900         -1    67.49542  -23.5765  -91.64719  L 
 H-H1-0.100700        -1    70.25058  -23.64936  -92.83417  L 
 H-H1-0.004300        -1    70.84872  -25.09111  -90.96863  L 
 H-HO-0.410200        -1    68.03109  -24.92093  -90.32757  L 
 H-HC-0.064200        -1    70.57384  -23.51923  -89.16223  L 
 H-HC-0.064200        -1    70.82244  -22.60193  -90.66394  L 
 H-HC-0.064200        -1    69.19391  -22.74622  -89.95634  L 
 N-N--0.415700        -1    68.033   -25.911   -93.314   L 
 C-CT--0.087500       -1    67.72    -27.155   -94.021   L 
 C-C-0.597300         -1    67.778   -27.016   -95.547   L 
 O-O--0.567900        -1    67.244   -26.059   -96.11    L 
 C-CT-0.298500        -1    66.306   -27.663   -93.615   L 
 C-CT--0.319200       -1    65.914   -28.871   -94.438   L 
 C-CT--0.319200       -1    66.284   -28.006   -92.137   L 
 H-H-0.271900         -1    67.27675  -25.34904  -92.94378  L 
 H-H1-0.096900        -1    68.41751  -27.91033  -93.67807  L 
 H-HC--0.029700       -1    65.57883  -26.87529  -93.80811  L 
 H-HC-0.079100        -1    64.94115  -29.22921  -94.10169  L 
 H-HC-0.079100        -1    65.84029  -28.66189  -95.47875  L 
 H-HC-0.079100        -1    66.63783  -29.67255  -94.29085  L 
 H-HC-0.079100        -1    66.61071  -27.16699  -91.53073  L 
 H-HC-0.079100        -1    65.27028  -28.28218  -91.86784  L 
 H-HC-0.079100        -1    66.94194  -28.85133  -91.93855  L 
 N-N--0.254800        -1    68.441   -27.967   -96.235   L 
 C-CT--0.026600       -1    68.542   -27.923   -97.697   L 
 C-C-0.589600         -1    67.157   -28.15    -98.292   L 
 O-O--0.574800        -1    66.344   -28.862   -97.701   L 
 C-CT--0.007000       -1    69.491   -29.082   -98.014   L 
 C-CT-0.018900        -1    70.338   -29.164   -96.823   L 
 C-CT-0.019200        -1    69.332   -29.009   -95.701   L 
 H-H1-0.064100        -1    68.95896  -26.9698  -98.02439  L 
 H-HC-0.025300        -1    68.93333  -30.01417  -98.1321  L 
 H-HC-0.025300        -1    70.07781  -28.87931  -98.91056  L 
 H-HC-0.021300        -1    70.85683  -30.12114  -96.76334  L 
 H-HC-0.021300        -1    71.05064  -28.33686  -96.80617  L 
 H-H1-0.039100        -1    68.77946  -29.937   -95.54311  L 
 H-H1-0.039100        -1    69.86026  -28.70087  -94.79918  L 
 N-N--0.516300        -1    66.879   -27.557   -99.449   L 
 C-CT-0.038100        -1    65.569   -27.754   -100.06   L 
 C-C-0.536600         -1    65.407   -29.176   -100.587  L 
 O-O--0.581900        -1    66.305   -29.736   -101.214  L 
 C-CT--0.030300       -1    65.33    -26.738   -101.177  L 
 C-C-0.799400         -1    65.184   -25.325   -100.646  L 
 O-O2--0.801400       -1    64.431   -25.132   -99.662   L 
 O-O2--0.801400       -1    65.815   -24.403   -101.212  L 
 H-H-0.293600         -1    67.54323  -26.94226  -99.893   L 
 H-H1-0.088000        -1    64.7996  -27.59845  -99.30682  L 
 H-HC--0.012200       -1    66.15219  -26.78795  -101.89409  L 
 H-HC--0.012200       -1    64.40852  -27.00128  -101.69975  L 
 N-N--0.415700        -1    64.254   -29.761   -100.303  L 
 C-CT--0.024900       -1    63.95    -31.116   -100.721  L 
 C-C-0.597300         -1    62.449   -31.272   -100.602  L 
 O-O--0.567900        -1    61.753   -30.338   -100.197  L 
 C-CT-0.211700        -1    64.644   -32.129   -99.808   L 
 O-OH--0.654600       -1    64.175   -32.023   -98.47    L 
 H-H-0.271900         -1    63.50907  -29.20877  -99.9004  L 
 H-H1-0.084300        -1    64.24918  -31.28592  -101.75557  L 
 H-H1-0.035200        -1    64.45493  -33.14015  -100.173  L 
 H-H1-0.035200        -1    65.72171  -31.95899  -99.83112  L 
 H-HO-0.427500        -1    64.30071  -31.09946  -98.2174  L 
 N-N--0.516300        -1    61.949   -32.445   -100.965  L 
 C-CT-0.038100        -1    60.521   -32.7     -100.879  L 
 C-C-0.536600         -1    60.131   -32.885   -99.413   L 
 O-O--0.581900        -1    58.988   -32.655   -99.037   L 
 C-CT--0.030300       -1    60.156   -33.943   -101.695  L 
 C-C-0.799400         -1    60.86    -35.186   -101.21   L 
 O-O2--0.801400       -1    62.089   -35.145   -100.991  L 
 O-O2--0.801400       -1    60.179   -36.217   -101.059  L 
 H-H-0.293600         -1    62.54255  -33.21211  -101.26487  L 
 H-H1-0.088000        -1    59.96433  -31.85023  -101.27592  L 
 H-HC--0.012200       -1    59.07325  -34.0838  -101.68387  L 
 H-HC--0.012200       -1    60.49062  -33.83272  -102.71658  L 
 N-N--0.415700        -1    61.093   -33.286   -98.587   L 
 C-CT--0.059700       -1    60.832   -33.497   -97.166   L 
 C-C-0.597300         -1    60.75    -32.176   -96.406   L 
 O-O--0.567900        -1    59.978   -32.046   -95.456   L 
 C-CT-0.130300        -1    61.919   -34.407   -96.516   L 
 C-CT--0.043000       -1    61.807   -35.831   -97.07    L 
 C-CT--0.320400       -1    61.746   -34.44    -95.012   L 
 C-CT--0.066000       -1    62.711   -36.824   -96.386   L 
 H-H-0.271900         -1    61.9788  -33.5637  -98.99205  L 
 H-H1-0.086900        -1    59.86484  -33.98815  -97.04668  L 
 H-HC-0.018700        -1    62.91018  -34.00945  -96.74296  L 
 H-HC-0.023600        -1    60.77746  -36.18144  -96.98014  L 
 H-HC-0.023600        -1    62.06415  -35.81255  -98.13023  L 
 H-HC-0.088200        -1    62.49573  -35.06842  -94.53628  L 
 H-HC-0.088200        -1    61.90359  -33.45719  -94.56943  L 
 H-HC-0.088200        -1    60.75007  -34.79993  -94.7473  L 
 H-HC-0.018600        -1    62.32683  -37.08787  -95.40055  L 
 H-HC-0.018600        -1    62.74783  -37.73581  -96.98279  L 
 H-HC-0.018600        -1    63.72138  -36.42124  -96.30347  L 
 N-N--0.347900        -1    61.546   -31.198   -96.826   L 
 C-CT--0.240000       -1    61.537   -29.892   -96.181   L 
[...]
 -31.397018,-99.734591\H,39.033971,-30.195499,-99.200255\H,37.996284,-3
 1.569404,-99.61017\H,38.447171,-31.182391,-97.330602\N,39.303,-34.138,
 -100.387\C,39.354,-35.578,-100.184\C,40.563,-36.167,-100.889\O,41.166,
 -37.119,-100.394\C,38.054,-36.299,-100.669\O,38.071,-36.434,-102.09\C,
 36.824,-35.512,-100.276\H,38.479471,-33.707858,-100.797695\H,39.458541
 ,-35.782949,-99.117859\H,38.016029,-37.293598,-100.223064\H,37.860385,
 -35.563791,-102.438179\H,37.025404,-34.670301,-99.619347\H,36.256141,-
 35.204817,-101.151351\H,36.177103,-36.180004,-99.707923\N,40.93,-35.59
 8,-102.034\C,42.092,-36.088,-102.771\C,43.355,-35.738,-101.999\O,44.30
 5,-36.52,-101.962\C,42.134,-35.489,-104.183\C,41.071,-36.087,-105.113\
 C,40.91,-35.31,-106.422\C,41.994,-35.617,-107.443\N,41.847,-34.756,-10
 8.665\H,40.349433,-34.862868,-102.419086\H,42.06616,-37.177014,-102.84
 0633\H,41.995519,-34.408286,-104.111558\H,43.11655,-35.675373,-104.621
 029\H,41.32187,-37.126202,-105.331034\H,40.109931,-36.086771,-104.6000
 04\H,39.943668,-35.578248,-106.851625\H,40.896004,-34.241378,-106.1990
 58\H,42.967836,-35.440584,-106.972938\H,41.946635,-36.679509,-107.7033
 5\H,41.963501,-33.783895,-108.406452\H,42.598422,-34.969444,-109.31257
 4\H,40.95682,-34.900981,-109.117979\N,43.36,-34.568,-101.368\C,44.511,
 -34.138,-100.581\C,44.624,-35.004,-99.325\O,45.712,-35.416,-98.939\C,4
 4.368,-32.679,-100.193\H,42.586954,-33.926486,-101.492596\H,45.423807,
 -34.267409,-101.163199\H,43.561625,-32.571071,-99.46669\H,45.281343,-3
 2.315792,-99.720662\H,44.102736,-32.056284,-101.032761\N,43.492,-35.27
 8,-98.689\C,43.483,-36.098,-97.487\C,44.01,-37.485,-97.818\O,44.713,-3
 8.101,-97.017\C,42.052,-36.216,-96.894\C,42.032,-37.236,-95.76\C,41.59
 9,-34.858,-96.383\H,42.634303,-34.823925,-98.988485\H,44.130444,-35.65
 9152,-96.729388\H,41.365059,-36.544358,-97.674011\H,42.826915,-37.0121
 59,-95.047755\H,41.072082,-37.183522,-95.245378\H,42.148267,-38.248644
 ,-96.144164\H,40.513123,-34.839862,-96.288352\H,42.04945,-34.657868,-9
 5.410072\H,41.917381,-34.097114,-97.048137\N,43.664,-37.97,-99.005\C,4
 4.109,-39.281,-99.45\C,45.631,-39.252,-99.48\O,46.291,-40.073,-98.845\
 C,43.557,-39.576,-100.851\C,42.847,-40.928,-100.983\C,43.798,-42.116,-
 100.889\O,43.73,-42.839,-99.776\N,44.587,-42.377,-101.805\H,42.984813,
 -37.459994,-99.55829\H,43.786436,-40.045799,-98.740546\H,42.83029,-38.
 815132,-101.124742\H,44.345564,-39.525014,-101.602915\H,42.08397,-41.0
 13243,-100.208599\H,42.349782,-40.965608,-101.952012\H,45.272207,-43.0
 88833,-101.634114\H,44.68302,-41.748688,-102.580748\N,46.179,-38.285,-
 100.208\C,47.621,-38.139,-100.33\C,48.278,-38.029,-98.955\O,49.307,-38
 .652,-98.69\C,47.953,-36.9,-101.161\C,49.385,-36.829,-101.59\N,50.367,
 -37.763,-101.582\C,49.952,-35.685,-102.108\C,51.497,-37.169,-102.088\N
 ,51.221,-35.916,-102.397\H,45.571368,-37.620302,-100.671443\H,48.01966
 5,-39.021843,-100.830072\H,47.34295,-36.907171,-102.063616\H,47.706021
 ,-35.99717,-100.600718\H,50.321281,-38.68175,-101.17531\H,49.46067,-34
 .740178,-102.250107\H,52.474331,-37.626776,-102.185232\N,47.664,-37.23
 5,-98.087\C,48.157,-37.012,-96.735\C,48.338,-38.304,-95.945\O,49.184,-
 38.372,-95.052\C,47.207,-36.048,-96.011\C,47.256,-36.133,-94.509\C,46.
 409,-37.002,-93.819\C,48.116,-35.325,-93.782\C,46.416,-37.057,-92.423\
 C,48.129,-35.377,-92.396\C,47.28,-36.241,-91.71\H,46.844657,-36.718971
 ,-98.387517\H,49.142253,-36.547168,-96.774675\H,47.386645,-35.01217,-9
 6.150338\H,46.186523,-36.239737,-96.319626\H,45.728363,-37.622823,-94.
 375839\H,48.796687,-34.655917,-94.29025\H,45.758032,-37.727532,-91.894
 997\H,48.869838,-34.82605,-91.843697\H,47.320567,-36.297661,-90.629416
 \N,47.548,-39.325,-96.269\C,47.657,-40.607,-95.578\C,48.618,-41.547,-9
 6.288\O,49.281,-42.363,-95.649\C,46.284,-41.271,-95.438\C,45.502,-40.7
 69,-94.241\C,44.467,-39.842,-94.389\C,45.824,-41.198,-92.949\C,43.772,
 -39.354,-93.276\C,45.142,-40.717,-91.833\C,44.118,-39.795,-91.998\O,43
 .46,-39.303,-90.888\H,46.791163,-39.168398,-96.925545\H,48.05351,-40.4
 58099,-94.571799\H,45.704043,-41.125551,-96.350877\H,46.418727,-42.345
 57,-95.306327\H,44.153597,-39.551977,-95.371699\H,46.632837,-41.901599
 ,-92.809949\H,42.961904,-38.650817,-93.380989\H,45.413418,-41.044267,-
 90.840859\H,43.952099,-39.455801,-90.079208\N,48.696,-41.43,-97.609\C,
 49.604,-42.269,-98.375\C,51.037,-41.955,-97.934\O,51.888,-42.845,-97.8
 61\C,49.405,-42.02,-99.876\C,48.076,-42.567,-100.38\O,47.711,-42.378,-
 101.54\N,47.349,-43.255,-99.503\H,48.111911,-40.73946,-98.073761\H,49.
 454992,-43.324181,-98.138506\H,49.443912,-40.954024,-100.091736\H,50.1
 93497,-42.523769,-100.43302\H,47.600018,-43.210482,-98.535782\H,46.397
 768,-43.441953,-99.769236\N,51.276,-40.686,-97.609\C,52.578,-40.211,-9
 7.148\C,52.824,-40.562,-95.68\O,53.957,-40.488,-95.209\C,52.685,-38.68
 1,-97.218\C,52.343,-38.173,-98.611\C,54.094,-38.243,-96.833\C,52.451,-
 36.67,-98.726\H,50.539367,-40.001185,-97.756937\H,53.374481,-40.652911
 ,-97.745504\H,51.940392,-38.254418,-96.556628\H,53.09467,-38.579571,-9
 9.28958\H,51.43679,-38.538558,-99.017286\H,54.259323,-37.187404,-97.02
 2644\H,54.2844,-38.326717,-95.772456\H,54.8437,-38.810048,-97.384869\H
 ,53.487746,-36.346303,-98.814969\H,51.930243,-36.333175,-99.617753\H,5
 1.976431,-36.197926,-97.870575\N,51.761,-40.898,-94.952\C,51.881,-41.2
 41,-93.54\C,52.342,-39.979,-92.775\O,53.468,-39.951,-92.28\C,52.935,-4
 2.36,-93.372\C,52.776,-43.538,-94.34\C,53.972,-44.489,-94.297\C,53.898
 ,-45.513,-95.425\N,52.547,-46.152,-95.495\H,50.858018,-40.942791,-95.4
 00102\H,50.921429,-41.555379,-93.131795\H,53.958086,-41.995621,-93.445
 62\H,52.843843,-42.74476,-92.354734\H,51.856725,-44.065385,-94.082553\
 H,52.695597,-43.186211,-95.365153\H,54.895014,-43.915889,-94.41195\H,5
 3.99655,-44.993016,-93.329432\H,54.113617,-44.985974,-96.363772\H,54.6
 86284,-46.257285,-95.276071\H,52.319289,-46.596096,-94.616135\H,51.860
 646,-45.423887,-95.669049\H,52.504175,-46.817617,-96.253126\N,51.497,-
 38.937,-92.66\C,51.908,-37.674,-91.986\C,51.602,-37.497,-90.438\O,52.3
 66,-36.989,-89.731\C,51.546,-36.497,-92.889\C,52.381,-36.569,-94.199\C
 ,52.037,-35.396,-95.098\C,53.885,-36.565,-93.883\H,50.615147,-38.96221
 9,-93.147135\H,52.991941,-37.682372,-91.914088\H,50.486583,-36.537709,
 -93.129278\H,51.762585,-35.562232,-92.369614\H,52.138145,-37.486825,-9
 4.709733\H,52.156787,-34.46486,-94.546506\H,52.70349,-35.375772,-95.95
 6139\H,51.004676,-35.482555,-95.431687\H,54.223228,-37.555364,-93.5791
 39\H,54.457859,-36.263281,-94.756872\H,54.09368,-35.849151,-93.086417\
 N,50.337,-37.876,-90.059\C,49.699,-38.07,-88.724\C,49.37,-37.421,-87.3
 48\O,49.666,-37.829,-86.19\C,50.048,-39.552,-88.387\C,51.508,-39.861,-
 88.014\C,51.869,-39.6,-86.54\O,52.188,-38.438,-86.212\O,51.861,-40.548
 ,-85.712\O,48.725,-36.334,-87.159\H,49.785792,-38.191403,-90.834156\H,
 48.655537,-38.115719,-89.01746\H,49.389883,-39.933691,-87.604596\H,49.
 813384,-40.151516,-89.269749\H,51.656478,-40.928015,-88.212105\H,52.20
 5153,-39.355104,-88.68008\C,48.23598975,-27.99886735,-96.07906897\C,48
 .94519636,-27.17240693,-95.20285515\C,48.54203161,-25.86202432,-94.957
 4981\C,47.4379575,-25.34586589,-95.64365696\O,47.06819399,-24.03683941
 ,-95.47662461\C,46.74768128,-26.14697455,-96.55113239\C,47.13303874,-2
 7.46694362,-96.73483995\C,48.62136935,-29.4060756,-96.32121002\C,49.01
 806432,-29.81881299,-97.53189304\C,49.24106991,-28.93956712,-98.746236
 76\C,48.2661471,-29.26964171,-99.89422264\C,49.30476485,-31.25085023,-
 97.76362897\C,50.58666045,-31.67138093,-98.13536664\C,50.83057501,-32.
 9971262,-98.44915669\C,49.77560415,-33.9013261,-98.49456419\C,48.49913
 592,-33.48919625,-98.14877665\C,48.2682425,-32.18806974,-97.72961861\C
 ,48.65746416,-30.27434204,-95.10076911\C,49.82840579,-30.95872312,-94.
 71564182\C,49.9238783,-31.6395952,-93.50653227\C,48.84175674,-31.64666
 516,-92.63328191\O,48.94641799,-32.43205282,-91.47744938\C,47.69456125
 ,-30.95276431,-92.97538764\C,47.59195313,-30.29487545,-94.19962178\C,4
 8.46483503,-31.96715326,-90.2407651\C,48.57239666,-33.1080979,-89.2476
 0629\N,49.95334022,-33.26111442,-88.62654869\C,51.07786309,-32.5785548
 8,-89.37669314\C,49.96472366,-32.83365517,-87.1883758\H,46.12150141,-2
 4.02436184,-95.32726222\H,49.81159641,-27.5738299,-94.68200175\H,49.08
 218245,-25.22989189,-94.25776461\H,50.172642,-34.25935332,-88.59843756
 \H,45.89305455,-25.74485778,-97.08859318\H,46.57224109,-28.10671178,-9
 7.41422315\H,50.26127439,-29.1318886,-99.10382267\H,49.18562672,-27.88
 110014,-98.48010125\H,47.24835555,-28.95882424,-99.63369453\H,48.55327
 241,-28.77034732,-100.82294415\H,48.25184781,-30.34895273,-100.0683755
 5\H,51.39244989,-30.93996137,-98.18057614\H,51.83699017,-33.31251755,-
 98.71050284\H,49.95392788,-34.92723378,-98.79869027\H,47.67399769,-34.
 1874631,-98.19851662\H,47.28150653,-31.86842845,-97.39983187\H,50.6938
 3574,-30.93602072,-95.36297574\H,50.83128048,-32.16332487,-93.22831232
 \H,46.93272062,-30.81917112,-92.21824506\H,46.69362303,-29.73208013,-9
 4.42480537\H,47.40133272,-31.70115208,-90.28724107\H,48.9985206,-31.06
 624404,-89.90797027\H,48.35223531,-34.0475517,-89.75391834\H,47.887855
 24,-32.97974293,-88.41036689\H,52.01117524,-33.00571072,-89.00927315\H
 ,50.94846731,-32.72331839,-90.44471497\H,51.05057718,-31.51667538,-89.
 10735983\H,49.71229272,-31.76958746,-87.14506732\H,49.26600632,-33.455
 32335,-86.62688994\H,50.97385347,-32.97259913,-86.79718318\O,29.771,-2
 1.053,-80.921\H,29.578131,-20.905166,-81.870402\H,30.588791,-20.538216
 ,-80.792494\O,32.048,-29.375,-96.423\H,33.022492,-29.233035,-96.594258
 \H,31.958857,-28.963851,-95.544888\O,66.388,-31.362,-96.738\H,66.37687
 4,-30.452071,-97.084132\H,65.851942,-31.864117,-97.358679\O,41.491,-18
 .549,-92.683\H,41.905193,-17.95091,-92.049525\H,41.975837,-19.378297,-
 92.550714\O,32.662,-27.057,-107.472\H,31.811799,-26.6235,-107.291179\H
 ,32.417084,-27.971312,-107.642556\O,29.44,-36.704,-83.015\H,29.026275,
 -37.416527,-83.545916\H,28.673381,-36.113762,-82.836997\O,20.465,-19.8
 87,-102.048\H,20.944927,-20.286615,-101.307519\H,19.654013,-19.582212,
 -101.633853\O,18.154,-14.131,-105.152\H,18.809089,-14.489493,-105.7799
 61\H,18.559277,-14.257662,-104.288606\O,47.391,-17.78,-107.537\H,48.11
 6808,-18.165486,-107.005189\H,47.154003,-16.991066,-107.039977\O,63.36
 3,-19.299,-93.087\H,63.180949,-20.242703,-92.860937\H,62.636974,-19.08
 3894,-93.67942\O,43.514,-16.695,-95.001\H,42.894516,-17.217159,-94.479
 665\H,43.085071,-15.835786,-95.061463\O,28.125,-12.74,-109.676\H,27.18
 3555,-13.025202,-109.694017\H,28.069533,-11.765639,-109.774304\O,33.01
 9,-8.637,-105.634\H,32.436311,-8.370187,-104.883743\H,33.432452,-9.440
 708,-105.286917\O,52.08,-14.086,-108.632\H,52.655123,-14.61527,-108.01
 9123\H,52.342819,-14.471282,-109.472018\O,33.137,-35.411,-95.662\H,32.
 737975,-34.623992,-95.248832\H,32.627113,-36.119073,-95.264096\O,22.17
 9,-11.694,-105.129\H,22.576425,-11.430322,-105.976941\H,22.511035,-11.
 00953,-104.521632\O,37.361,-33.794,-97.235\H,38.089136,-33.161545,-97.
 292663\H,36.977038,-33.648617,-96.364294\O,25.783,-32.233,-94.631\H,26
 .257541,-32.92819,-95.145513\H,25.264176,-31.814534,-95.327374\O,27.61
 3,-31.776,-91.218\H,27.160686,-30.926883,-91.143689\H,26.887727,-32.43
 676,-91.277368\O,23.605,-4.557,-104.803\H,23.441202,-4.447268,-103.860
 523\H,24.544807,-4.786882,-104.843192\O,67.799,-21.864,-96.915\H,68.18
 5762,-22.154846,-96.077273\H,66.866044,-21.749565,-96.720642\O,25.405,
 -6.588,-94.591\H,26.392381,-6.567648,-94.684542\H,25.09585,-6.401625,-
 95.488\O,38.351,-10.926,-105.362\H,37.727608,-11.290318,-104.715518\H,
 39.130179,-10.737521,-104.832679\O,32.824,-6.928,-88.851\H,32.822649,-
 7.878974,-88.656464\H,33.646405,-6.79477,-89.327619\O,61.129,-26.196,-
 92.82\H,60.746109,-26.779955,-93.487846\H,61.305174,-26.781569,-92.076
 228\O,43.443,-36.283,-86.127\H,43.73903,-35.645998,-86.796576\H,44.267
 227,-36.577171,-85.732065\O,61.803,-38.997,-100.212\H,61.376221,-38.74
 9121,-99.391213\H,61.551652,-38.266929,-100.797672\O,42.202,-13.865,-9
 4.053\H,41.630343,-14.523956,-93.621353\H,42.94824,-13.803245,-93.4473
 49\O,67.086,-27.617,-87.828\H,67.863873,-27.374359,-88.332681\H,66.395
 11,-27.069389,-88.251979\O,23.903,-31.093,-96.687\H,24.639073,-30.4694
 95,-96.522594\H,23.210689,-30.76839,-96.104512\O,53.619,-37.122,-105.6
 49\H,53.303722,-36.304267,-105.23167\H,54.453991,-37.283743,-105.20722
 7\O,25.04,-31.924,-80.424\H,25.244147,-32.395872,-81.257595\H,24.70329
 ,-32.643738,-79.866005\O,30.524,-5.551,-104.245\H,30.919793,-6.385285,
 -103.912984\H,29.611117,-5.657325,-103.964301\O,20.408,-14.663,-102.24
 1\H,20.615341,-14.104423,-101.476202\H,21.20385,-14.601771,-102.789304
 \O,32.733,-28.598,-99.682\H,32.344566,-28.451085,-98.814958\H,33.44988
 5,-29.225285,-99.470307\O,63.842,-28.546,-89.903\H,64.404633,-27.77506
 ,-89.730055\H,63.213427,-28.526825,-89.181365\O,51.893,-24.445,-108.36
 1\H,52.318313,-23.687024,-107.950367\H,51.836593,-24.182051,-109.30304
 2\O,21.308,-14.084,-91.189\H,21.188551,-15.019962,-90.906403\H,20.4014
 63,-13.743245,-91.177006\O,44.755,-20.088,-110.687\H,44.556297,-20.948
 058,-110.30174\H,45.717693,-20.063237,-110.728672\O,33.615,-37.176,-88
 .407\H,33.926224,-37.13767,-87.494322\H,34.381512,-36.894568,-88.91997
 9\O,20.885,-16.563,-90.401\H,21.448239,-17.235835,-90.817919\H,19.9709
 16,-16.894256,-90.560994\O,55.365,-43.197,-97.572\H,54.586952,-42.7425
 11,-97.906938\H,55.903036,-42.484364,-97.212464\O,45.581,-12.664,-102.
 534\H,46.106546,-11.986661,-103.000529\H,46.245599,-13.280528,-102.184
 999\O,24.355,-34.303,-79.117\H,25.080763,-34.959507,-79.037693\H,23.91
 507,-34.574059,-79.927894\O,21.995,-14.667,-104.358\H,21.176259,-14.48
 9515,-104.836533\H,22.403629,-13.781094,-104.342833\O,29.662,-21.624,-
 109.579\H,29.273259,-21.759888,-108.7034\H,30.085724,-20.768589,-109.4
 90128\O,54.962,-33.453,-108.315\H,55.895819,-33.368028,-108.091013\H,5
 4.877697,-34.354765,-108.631721\O,49.24,-19.291,-93.296\H,49.535118,-1
 9.739995,-94.103939\H,50.054828,-18.944974,-92.923143\O,43.065,-11.966
 ,-101.423\H,42.831263,-12.843129,-101.086188\H,43.964884,-12.117452,-1
 01.767796\O,64.471,-21.357,-96.316\H,64.146341,-20.858836,-95.557823\H
 ,64.158562,-20.850966,-97.073388\O,36.905,-8.374,-100.205\H,36.172152,
 -7.783177,-100.409665\H,37.422532,-8.422211,-101.01642\O,42.599,-22.59
 ,-79.568\H,42.65832,-22.890686,-80.484404\H,43.428236,-22.129708,-79.4
 31414\O,39.282,-20.142,-89.855\H,40.036834,-20.605414,-89.4807\H,38.58
 7774,-20.260207,-89.196576\O,22.305,-25.577,-84.04\H,22.392976,-26.247
 919,-84.737565\H,22.58068,-26.044612,-83.244438\O,41.462,-9.512,-98.27
 1\H,40.736485,-10.121451,-98.495747\H,41.967825,-9.4683,-99.083432\O,2
 3.347,-27.353,-80.506\H,23.708834,-27.190516,-79.628918\H,23.106488,-2
 8.28492,-80.484719\O,56.007,-23.932,-90.371\H,56.647508,-23.23883,-90.
 651514\H,56.499941,-24.469418,-89.739833\O,60.82,-17.595,-95.948\H,59.
 910749,-17.931336,-95.957157\H,60.934069,-17.279819,-96.845551\O,45.59
 9,-38.005,-103.941\H,45.254697,-37.456907,-103.220009\H,46.485926,-37.
 666358,-104.090778\O,48.23,-12.805,-98.818\H,47.944732,-13.297927,-99.
 595133\H,49.152797,-13.076713,-98.712924\O,29.975,-14.08,-110.729\H,30
 .459796,-13.320932,-111.053656\H,29.209415,-13.652067,-110.274385\O,58
 .278,-36.959,-103.933\H,58.216869,-36.002114,-103.969847\H,58.772428,-
 37.105915,-103.116271\O,62.097,-22.683,-89.075\H,61.270722,-22.64691,-
 89.584928\H,61.945573,-23.378032,-88.41482\O,44.555,-21.929,-94.475\H,
 45.267634,-22.056524,-93.78032\H,44.599382,-22.745936,-94.984674\O,31.
 593,-8.436,-108.057\H,30.761578,-8.816161,-107.757232\H,32.150922,-8.5
 19059,-107.250935\O,51.015,-9.927,-106.002\H,51.634776,-10.645656,-105
 .850739\H,50.297108,-10.356069,-106.479166\O,29.804,-32.937,-90.563\H,
 30.521863,-32.380798,-90.933522\H,28.986507,-32.432094,-90.772451\O,38
 .806,-9.979,-101.865\H,38.242761,-10.665421,-102.242584\H,39.671862,-1
 0.144775,-102.273921\O,41.335,-10.556,-103.115\H,41.83785,-11.122484,-
 102.495355\H,41.985342,-9.898849,-103.368377\O,49.051,-36.123,-105.661
 \H,49.467003,-36.297657,-106.510939\H,49.799266,-36.054921,-105.056402
 \O,45.008,-34.465,-106.917\H,45.533646,-33.704258,-107.190622\H,45.674
 381,-35.0669,-106.564671\O,22.106,-10.856,-89.467\H,22.164697,-11.6769
 54,-89.982017\H,21.156873,-10.791246,-89.309887\O,18.888,-12.567,-91.1
 67\H,18.838672,-12.338995,-92.103716\H,18.259501,-13.301772,-91.097271
 \O,17.515,-8.934,-90.681\H,17.546829,-8.80421,-91.632585\H,17.554023,-
 9.889986,-90.587685\O,58.355,-17.82,-100.68\H,58.930397,-18.588612,-10
 0.604222\H,58.225429,-17.728633,-101.629391\O,61.964,-24.696,-87.025\H
 ,62.601642,-25.324985,-86.642098\H,61.114014,-25.08124,-86.801773\O,27
 .877,-6.71,-94.694\H,28.43093,-5.997849,-95.04003\H,28.401893,-7.49444
 1,-94.90189\O,35.826,-15.833,-90.16\H,35.690308,-14.932195,-89.812704\
 H,36.71287,-15.773059,-90.575156\O,43.842,-20.07,-90.618\H,44.102892,-
 20.859856,-91.104747\H,44.669589,-19.758797,-90.243819\O,44.85,-34.51,
 -88.091\H,45.757251,-34.747618,-87.863214\H,44.940746,-33.97519,-88.88
 2498\O,32.751,-6.112,-108.469\H,32.587427,-5.73089,-107.600271\H,32.27
 1079,-6.963504,-108.413057\O,17.151,-10.691,-97.282\H,17.765468,-10.52
 1848,-96.545829\H,17.32559,-11.607025,-97.494372\O,63.593,-16.891,-91.
 94\H,63.67435,-17.802119,-92.283202\H,62.673493,-16.681584,-92.102166\
 O,49.819,-39.716,-82.972\H,49.551335,-38.947688,-83.494555\H,50.518353
 ,-40.075614,-83.538654\O,28.475,-9.987,-110.017\H,27.757671,-9.525409,
 -109.516246\H,29.20903,-9.382018,-109.896904\O,59.734,-21.056,-100.642
 \H,59.98368,-21.366218,-101.522486\H,59.052911,-21.670601,-100.36628\O
 ,51.748,-23.579,-110.83\H,51.837529,-22.627537,-110.646299\H,52.129767
 ,-23.66881,-111.71139\O,21.024,-17.435,-104.787\H,21.194686,-16.57157,
 -104.384117\H,20.639879,-17.944544,-104.06272\O,32.241,-39.186,-91.07\
 H,32.130274,-38.917119,-91.987029\H,32.815028,-38.504328,-90.70351\O,6
 4.614,-36.041,-100.597\H,63.745511,-35.621454,-100.782938\H,64.358655,
 -36.937834,-100.38511\O,25.959,-33.771,-91.579\H,26.094119,-34.717828,
 -91.466755\H,25.668521,-33.685254,-92.49696\O,29.175,-28.522,-75.051\H
 ,28.89806,-28.863467,-75.912987\H,28.9476,-27.592191,-75.113781\O,57.9
 11,-12.078,-96.154\H,58.32285,-12.893009,-95.861892\H,57.327985,-12.36
 4067,-96.863941\O,42.695,-24.047,-113.367\H,43.330226,-23.444032,-112.
 965549\H,43.216729,-24.843418,-113.506395\O,58.715,-25.404,-102.048\H,
 58.210713,-25.680504,-101.275635\H,58.87854,-26.220684,-102.526199\O,6
 3.796,-26.539,-86.218\H,64.252857,-26.209449,-87.008645\H,64.33194,-27
 .291583,-85.959796\O,51.556,-27.925,-114.415\H,52.059575,-27.08537,-11
 4.263725\H,50.9569,-27.970435,-113.661839\O,36.884,-19.63,-113.681\H,3
 7.310292,-19.057864,-113.030613\H,36.063599,-19.162253,-113.877104\O,5
 1.304,-15.271,-93.434\H,51.554612,-15.91942,-92.756713\H,51.807112,-14
 .474971,-93.226844\O,70.072,-19.859,-92.335\H,69.992303,-20.578373,-92
 .9697\H,69.420851,-19.220601,-92.62768\O,42.217,-21.94,-93.668\H,41.74
 6325,-22.587169,-94.224035\H,43.142033,-21.947878,-94.000418\O,51.666,
 -11.049,-111.092\H,51.952914,-11.610477,-110.365002\H,51.358743,-11.67
 417,-111.752821\O,22.84,-7.142,-96.677\H,22.013918,-7.55581,-96.398991
 \H,23.110267,-7.704864,-97.412173\\Version=ES64L-G16RevB.01\HF=-0.0935
 197\RMSD=5.362e-09\RMSF=3.407e-04\Dipole=-105.7809863,43.8304486,-65.7
 880782\Quadrupole=-4948.7804894,-9871.7585388,14820.5390282,-5789.3686
 2,-15763.5587086,10425.6673569\PG=C01 [X(C1075H1907N267O422S10)]\\@
 Punch of MOs requested, but none found.


 Age does not diminish the extreme disappointment of
 having a scoop of ice cream fall from the cone.
 -- Jim Fiebig
 Job cpu time:       0 days  0 hours 19 minutes 23.7 seconds.
 Elapsed time:       0 days  0 hours  1 minutes 38.0 seconds.
 File lengths (MBytes):  RWF=    583 Int=      0 D2E=      0 Chk=    540 Scr=      1
 Normal termination of Gaussian 16 at Tue Jan  9 14:51:36 2024.
