 Entering Gaussian System, Link 0=g16
 AtFile(1): /share/home/chem-zhonglh/yanzy/env/amber14_mod.prm
            !
            ! Non-bonded interaction
            !
            NonBon 3 1 0 0 0.000 0.000 0.500 0.000 0.000 -1.000
            !
            ! Stretches
            !
            HrmStr1 OW HW  553.0  0.9572
            HrmStr1 HW HW  553.0  1.5136
            HrmStr1 C  C   310.0  1.525
            HrmStr1 C  CA  469.0  1.409
            HrmStr1 C  CB  447.0  1.419
            HrmStr1 C  CM  410.0  1.444
            HrmStr1 C  CS  410.0  1.444
            HrmStr1 C  CT  317.0  1.522
            HrmStr1 C  CX  317.0  1.522
            HrmStr1 C  N   490.0  1.335
            HrmStr1 C  N*  424.0  1.383
            HrmStr1 C  NA  418.0  1.388
            HrmStr1 C  NC  457.0  1.358
            HrmStr1 C  O   570.0  1.229
            HrmStr1 C  O2  656.0  1.250
            HrmStr1 C  OH  450.0  1.364
            HrmStr1 C  OS  450.0  1.323
            HrmStr1 C  H4  367.0  1.080
            HrmStr1 C  H5  367.0  1.080
            HrmStr1 CA CA  469.0  1.400
            HrmStr1 CA CB  469.0  1.404
            HrmStr1 CA CM  427.0  1.433
            HrmStr1 CA CS  427.0  1.433
            HrmStr1 CA CN  469.0  1.400
            HrmStr1 CA CT  317.0  1.510
            HrmStr1 CA HA  367.0  1.080
            HrmStr1 CA H4  367.0  1.080
            HrmStr1 CA N2  481.0  1.340
            HrmStr1 CA NA  427.0  1.381
            HrmStr1 CA NC  483.0  1.339
            HrmStr1 CA OH  450.0  1.364
            HrmStr1 CB CB  520.0  1.370
            HrmStr1 CB N*  436.0  1.374
            HrmStr1 CB NB  414.0  1.391
            HrmStr1 CB NC  461.0  1.354
            HrmStr1 CD HA  367.0  1.080
            HrmStr1 CD CD  469.0  1.400
            HrmStr1 CD CM  549.0  1.350
            HrmStr1 CD CS  549.0  1.350
            HrmStr1 CD CT  317.0  1.510
            HrmStr1 CK H5  367.0  1.080
            HrmStr1 CK N*  440.0  1.371
            HrmStr1 CK NB  529.0  1.304
            HrmStr1 CP H5  367.0  1.080
            HrmStr1 CP N*  440.0  1.371
            HrmStr1 CP NB  529.0  1.304
            HrmStr1 CM CM  549.0  1.350
            HrmStr1 CM CT  317.0  1.510
            HrmStr1 CM HA  367.0  1.080
            HrmStr1 CM H4  367.0  1.080
            HrmStr1 CM H5  367.0  1.080
            HrmStr1 CM N*  448.0  1.365
            HrmStr1 CM OS  480.0  1.240
            HrmStr1 CS CS  549.0  1.350
            HrmStr1 CS CT  317.0  1.510
            HrmStr1 CS HA  367.0  1.080
            HrmStr1 CS H4  367.0  1.080
            HrmStr1 CS H5  367.0  1.080
            HrmStr1 CS N*  448.0  1.365
            HrmStr1 CS OS  480.0  1.240
            HrmStr1 CQ H5  367.0  1.080
            HrmStr1 CQ NC  502.0  1.324
            HrmStr1 CT CT  310.0  1.526
            HrmStr1 CX CT  310.0  1.526
            HrmStr1 CT HC  340.0  1.090
            HrmStr1 CT H1  340.0  1.090
            HrmStr1 CX H1  340.0  1.090
            HrmStr1 CT H2  340.0  1.090
            HrmStr1 CT H3  340.0  1.090
            HrmStr1 CT HP  340.0  1.090
            HrmStr1 CX HP  340.0  1.090
            HrmStr1 CT N*  337.0  1.475
            HrmStr1 CT N2  337.0  1.463
            HrmStr1 CT OH  320.0  1.410
            HrmStr1 CT OS  320.0  1.410
            HrmStr1 C* HC  367.0  1.080
            HrmStr1 C* CB  388.0  1.459
            HrmStr1 C* CT  317.0  1.495
            HrmStr1 C* CW  546.0  1.352
            HrmStr1 CB CN  447.0  1.419
            HrmStr1 CC CT  317.0  1.504
            HrmStr1 CC CV  512.0  1.375
            HrmStr1 CC CW  518.0  1.371
            HrmStr1 CC NA  422.0  1.385
            HrmStr1 CC NB  410.0  1.394
            HrmStr1 CN NA  428.0  1.380
            HrmStr1 CR H5  367.0  1.080
            HrmStr1 CR NA  477.0  1.343
            HrmStr1 CR NB  488.0  1.335
            HrmStr1 CT N   337.0  1.449
            HrmStr1 CX N   337.0  1.449
            HrmStr1 CT N3  367.0  1.471
            HrmStr1 CX N3  367.0  1.471
            HrmStr1 CT NT  367.0  1.471
            HrmStr1 CT S   227.0  1.810
            HrmStr1 CT SH  237.0  1.810
            HrmStr1 CT CY  400.0  1.458
            HrmStr1 CT CZ  400.0  1.459
            HrmStr1 CV H4  367.0  1.080
            HrmStr1 CV NB  410.0  1.394
            HrmStr1 CW H4  367.0  1.080
            HrmStr1 CW NA  427.0  1.381
            HrmStr1 CY NY  600.0  1.150
            HrmStr1 CZ CZ  600.0  1.206
            HrmStr1 CZ HZ  400.0  1.056
            HrmStr1 OP P   525.0  1.480
            HrmStr1 O2 P   525.0  1.480
            HrmStr1 OH P   230.0  1.610
            HrmStr1 OS P   230.0  1.610
            HrmStr1 NA P   250.0  1.840
            HrmStr1 H  N2  434.0  1.010
            HrmStr1 H  N*  434.0  1.010
            HrmStr1 H  NA  434.0  1.010
            HrmStr1 H  N   434.0  1.010
            HrmStr1 H  N3  434.0  1.010
            HrmStr1 H  NT  434.0  1.010
            HrmStr1 HO OH  553.0  0.960
            HrmStr1 HO OS  553.0  0.960
            HrmStr1 HS SH  274.0  1.336
            HrmStr1 S  S   166.0  2.038
            HrmStr1 F  CT  367.0  1.380
            HrmStr1 Cl CT  232.0  1.766
            HrmStr1 Br CT  159.0  1.944
            HrmStr1 I  CT  148.0  2.166
            HrmStr1 F  CA  386.0  1.359
            HrmStr1 Cl CA  193.0  1.727
            HrmStr1 I  CA  171.0  2.075
            HrmStr1 Br CA  172.0  1.890
            HrmStr1 EP O   600.0  0.200
            HrmStr1 EP OH  600.0  0.200
            HrmStr1 EP OS  600.0  0.200
            HrmStr1 EP N3  600.0  0.200
            HrmStr1 EP NT  600.0  0.200
            HrmStr1 EP NB  600.0  0.200
            HrmStr1 EP NC  600.0  0.200
            HrmStr1 EP S   600.0  0.700
            HrmStr1 EP SH  600.0  0.700
            HrmStr1 CI H1  340.0  1.090
            HrmStr1 CI CT  310.0  1.526
            HrmStr1 OS CI  320.0  1.410
            HrmStr1 OH CI  320.0  1.410
            HrmStr1 C5 H5  367.0  1.080
            HrmStr1 C5 N*  440.0  1.371
            HrmStr1 C5 NB  529.0  1.304
            HrmStr1 C  C4  410.0  1.444
            HrmStr1 CA C4  427.0  1.433
            HrmStr1 C4 C4  549.0  1.350
            HrmStr1 C4 CT  317.0  1.510
            HrmStr1 C4 HA  367.0  1.080
            HrmStr1 C4 H4  367.0  1.080
            HrmStr1 C4 N*  448.0  1.365
            HrmStr1 C8 C8  310.0  1.5260
            HrmStr1 C8 CX  310.0  1.5260
            HrmStr1 C8 H1  340.0  1.0900
            HrmStr1 C8 HC  340.0  1.0900
            HrmStr1 C8 HP  340.0  1.0900
            HrmStr1 C8 N2  337.0  1.4630
            HrmStr1 C8 N3  367.0  1.4710
            HrmStr1 CO O2  656.0  1.2500
            !
            ! Angles
            !
            HrmBnd1 HW OW HW    100.   104.52
            HrmBnd1 HW HW OW      0.   127.74
            HrmBnd1 C  C  O     80.0   120.00
            HrmBnd1 C  C  OH    80.0   120.00
            HrmBnd1 CA C  CA    63.0   120.00
            HrmBnd1 CA C  OH    70.0   120.00
            HrmBnd1 CA C  OS    70.0   120.00
            HrmBnd1 CC NA P     76.7   125.10
            HrmBnd1 CR NA P     76.7   125.10
            HrmBnd1 NA P  OP    42.9   102.38
            HrmBnd1 CB C  NA    70.0   111.30
            HrmBnd1 CB C  O     80.0   128.80
            HrmBnd1 CM C  NA    70.0   114.10
            HrmBnd1 CM C  O     80.0   125.30
            HrmBnd1 CS C  NA    70.0   114.10
            HrmBnd1 CS C  O     80.0   125.30
            HrmBnd1 CT C  O     80.0   120.40
            HrmBnd1 CX C  O     80.0   120.40
            HrmBnd1 CT C  O2    70.0   117.00
            HrmBnd1 CX C  O2    70.0   117.00
            HrmBnd1 CT C  N     70.0   116.60
            HrmBnd1 CX C  N     70.0   116.60
            HrmBnd1 CT C  CT    63.0   117.00
            HrmBnd1 CT C  OS    80.0   115.00
            HrmBnd1 CT C  OH    80.0   110.00
            HrmBnd1 CX C  OH    80.0   110.00
            HrmBnd1 N* C  NA    70.0   115.40
            HrmBnd1 N* C  NC    70.0   118.60
            HrmBnd1 N* C  O     80.0   120.90
            HrmBnd1 NA C  O     80.0   120.60
            HrmBnd1 NC C  O     80.0   122.50
            HrmBnd1 N  C  O     80.0   122.90
            HrmBnd1 O  C  O     80.0   126.00
            HrmBnd1 O  C  OH    80.0   120.00
            HrmBnd1 O  C  OS    80.0   125.00
            HrmBnd1 O2 C  O2    80.0   126.00
            HrmBnd1 H4 C  C     50.0   120.00
            HrmBnd1 H4 C  CM    50.0   115.00
            HrmBnd1 H4 C  CS    50.0   115.00
            HrmBnd1 H4 C  CT    50.0   115.00
            HrmBnd1 H4 C  O     50.0   120.00
            HrmBnd1 H4 C  OH    50.0   120.00
            HrmBnd1 H5 C  N     50.0   120.00
            HrmBnd1 H5 C  O     50.0   119.00
            HrmBnd1 H5 C  OH    50.0   107.00
            HrmBnd1 H5 C  OS    50.0   107.00
            HrmBnd1 C  CA CA    63.0   120.00
            HrmBnd1 C  CA HA    50.0   120.00
            HrmBnd1 CA CA CA    63.0   120.00
            HrmBnd1 CA CA CB    63.0   120.00
            HrmBnd1 CA CA CT    70.0   120.00
            HrmBnd1 CA CA HA    50.0   120.00
            HrmBnd1 CA CA H4    50.0   120.00
            HrmBnd1 CA CA OH    70.0   120.00
            HrmBnd1 CA CA CN    63.0   120.00
            HrmBnd1 CB CA HA    50.0   120.00
            HrmBnd1 CB CA H4    50.0   120.00
            HrmBnd1 CB CA N2    70.0   123.50
            HrmBnd1 CB CA NC    70.0   117.30
            HrmBnd1 CM CA N2    70.0   120.10
            HrmBnd1 CM CA NC    70.0   121.50
            HrmBnd1 CS CA N2    70.0   120.10
            HrmBnd1 CS CA NC    70.0   121.50
            HrmBnd1 CN CA HA    50.0   120.00
            HrmBnd1 NA CA NC    70.0   123.30
            HrmBnd1 N2 CA NA    70.0   116.00
            HrmBnd1 N2 CA NC    70.0   119.30
            HrmBnd1 N2 CA N2    70.0   120.00
            HrmBnd1 F  CA CA    70.0   121.00
            HrmBnd1 Cl CA CA    70.0   118.80
            HrmBnd1 Br CA CA    70.0   118.80
            HrmBnd1 I  CA CA    70.0   118.80
            HrmBnd1 C  CB CB    63.0   119.20
            HrmBnd1 C  CB NB    70.0   130.00
            HrmBnd1 CA CB CB    63.0   117.30
            HrmBnd1 CA CB NB    70.0   132.40
            HrmBnd1 CB CB N*    70.0   106.20
            HrmBnd1 CB CB NB    70.0   110.40
            HrmBnd1 CB CB NC    70.0   127.70
            HrmBnd1 C* CB CA    63.0   134.90
            HrmBnd1 C* CB CN    63.0   108.80
            HrmBnd1 CA CB CN    63.0   116.20
            HrmBnd1 N* CB NC    70.0   126.20
            HrmBnd1 CD CD CM    63.0   120.00
            HrmBnd1 CD CD CS    63.0   120.00
            HrmBnd1 CD CD CT    70.0   120.00
            HrmBnd1 CM CD CT    70.0   120.00
            HrmBnd1 CS CD CT    70.0   120.00
            HrmBnd1 HA CD HA    35.0   119.00
            HrmBnd1 HA CD CD    50.0   120.00
            HrmBnd1 HA CD CM    50.0   120.00
            HrmBnd1 HA CD CS    50.0   120.00
            HrmBnd1 H5 CK N*    50.0   123.05
            HrmBnd1 H5 CK NB    50.0   123.05
            HrmBnd1 N* CK NB    70.0   113.90
            HrmBnd1 H5 CP N*    50.0   123.05
            HrmBnd1 H5 CP NB    50.0   123.05
            HrmBnd1 N* CP NB    70.0   113.90
            HrmBnd1 C  CM CM    63.0   120.70
            HrmBnd1 C  CM CT    70.0   119.70
            HrmBnd1 C  CM HA    50.0   119.70
            HrmBnd1 C  CM H4    50.0   119.70
            HrmBnd1 CA CM CM    63.0   117.00
            HrmBnd1 CA CM HA    50.0   123.30
            HrmBnd1 CA CM H4    50.0   123.30
            HrmBnd1 CM CM CT    70.0   119.70
            HrmBnd1 CM CM HA    50.0   119.70
            HrmBnd1 CM CM H4    50.0   119.70
            HrmBnd1 CM CM N*    70.0   121.20
            HrmBnd1 CM CM OS    80.0   125.00
            HrmBnd1 H4 CM N*    50.0   119.10
            HrmBnd1 H4 CM OS    50.0   113.00
            HrmBnd1 HA CM HA    35.0   120.00
            HrmBnd1 HA CM CD    50.0   120.00
            HrmBnd1 HA CM CT    50.0   120.00
            HrmBnd1 C  CS CS    63.0   120.70
            HrmBnd1 C  CS CT    70.0   119.70
            HrmBnd1 C  CS HA    50.0   119.70
            HrmBnd1 C  CS H4    50.0   119.70
            HrmBnd1 CA CS CS    63.0   117.00
            HrmBnd1 CA CS HA    50.0   123.30
            HrmBnd1 CA CS H4    50.0   123.30
            HrmBnd1 CM CS CT    70.0   119.70
            HrmBnd1 CS CS HA    50.0   119.70
            HrmBnd1 CS CS H4    50.0   119.70
            HrmBnd1 CS CS N*    70.0   121.20
            HrmBnd1 CS CS OS    80.0   125.00
            HrmBnd1 H4 CS N*    50.0   119.10
            HrmBnd1 H4 CS OS    50.0   113.00
            HrmBnd1 HA CS HA    35.0   120.00
            HrmBnd1 HA CS CD    50.0   120.00
            HrmBnd1 HA CS CT    50.0   120.00
            HrmBnd1 NC CQ NC    70.0   129.10
            HrmBnd1 H5 CQ NC    50.0   115.45
            HrmBnd1 H1 CT H1    35.0   109.50
            HrmBnd1 H1 CX H1    35.0   109.50
            HrmBnd1 H1 CT N*    50.0   109.50
            HrmBnd1 H1 CT OH    50.0   109.50
            HrmBnd1 H1 CT OS    50.0   109.50
            HrmBnd1 H1 CT CM    50.0   109.50
            HrmBnd1 H1 CT CS    50.0   109.50
            HrmBnd1 H1 CT CY    50.0   110.00
            HrmBnd1 H1 CT CZ    50.0   110.00
            HrmBnd1 H1 CT N     50.0   109.50
            HrmBnd1 H1 CX N     50.0   109.50
            HrmBnd1 H1 CT S     50.0   109.50
            HrmBnd1 H1 CT SH    50.0   109.50
            HrmBnd1 H1 CT N2    50.0   109.50
            HrmBnd1 H1 CT NT    50.0   109.50
            HrmBnd1 H2 CT H2    35.0   109.50
            HrmBnd1 H2 CT N*    50.0   109.50
            HrmBnd1 H2 CT OS    50.0   109.50
            HrmBnd1 HP CT HP    35.0   109.50
            HrmBnd1 HP CX HP    35.0   109.50
            HrmBnd1 HP CT N3    50.0   109.50
            HrmBnd1 HP CX N3    50.0   109.50
            HrmBnd1 HC CT HC    35.0   109.50
            HrmBnd1 HC CT CM    50.0   109.50
            HrmBnd1 HC CT CS    50.0   109.50
            HrmBnd1 HC CT CD    50.0   109.50
            HrmBnd1 HC CT CZ    50.0   110.00
            HrmBnd1 C  CT H1    50.0   109.50
            HrmBnd1 C  CX H1    50.0   109.50
            HrmBnd1 C  CT HP    50.0   109.50
            HrmBnd1 C  CX HP    50.0   109.50
            HrmBnd1 C  CT HC    50.0   109.50
            HrmBnd1 C  CT N     63.0   110.10
            HrmBnd1 C  CX N     63.0   110.10
            HrmBnd1 C  CT N3    80.0   111.20
            HrmBnd1 C  CX N3    80.0   111.20
            HrmBnd1 C  CT CT    63.0   111.10
            HrmBnd1 C  CT CX    63.0   111.10
            HrmBnd1 C  CX CT    63.0   111.10
            HrmBnd1 C  CT OS    60.0   109.50
            HrmBnd1 CA CT HC    50.0   109.50
            HrmBnd1 CC CT CT    63.0   113.10
            HrmBnd1 CC CT CX    63.0   113.10
            HrmBnd1 CC CT HC    50.0   109.50
            HrmBnd1 CM CT CT    63.0   111.00
            HrmBnd1 CM CT OS    50.0   109.50
            HrmBnd1 CS CT CT    63.0   111.00
            HrmBnd1 CS CT OS    50.0   109.50
            HrmBnd1 CT CT CT    40.0   109.50
            HrmBnd1 CT CT CX    40.0   109.50
            HrmBnd1 CT CT HC    50.0   109.50
            HrmBnd1 CX CT HC    50.0   109.50
            HrmBnd1 CT CT H1    50.0   109.50
            HrmBnd1 CT CX H1    50.0   109.50
            HrmBnd1 CX CT H1    50.0   109.50
            HrmBnd1 CT CT H2    50.0   109.50
            HrmBnd1 CT CT HP    50.0   109.50
            HrmBnd1 CT CX HP    50.0   109.50
            HrmBnd1 CT CT N*    50.0   109.50
            HrmBnd1 CT CT OH    50.0   109.50
            HrmBnd1 CX CT OH    50.0   109.50
            HrmBnd1 CT CT OS    50.0   109.50
            HrmBnd1 CT CT S     50.0   114.70
            HrmBnd1 CX CT S     50.0   114.70
            HrmBnd1 CT CT SH    50.0   108.60
            HrmBnd1 CX CT SH    50.0   108.60
            HrmBnd1 CT CT CA    63.0   114.00
            HrmBnd1 CX CT CA    63.0   114.00
            HrmBnd1 CT CT N2    80.0   111.20
            HrmBnd1 CT CT N     80.0   109.70
            HrmBnd1 CT CX N     80.0   109.70
            HrmBnd1 CT CT N3    80.0   111.20
            HrmBnd1 CT CX N3    80.0   111.20
            HrmBnd1 CT CT NT    80.0   111.20
            HrmBnd1 CT CT CY    63.0   110.00
            HrmBnd1 CT CT CZ    63.0   110.00
            HrmBnd1 C* CT CT    63.0   115.60
            HrmBnd1 C* CT CX    63.0   115.60
            HrmBnd1 C* CT HC    50.0   109.50
            HrmBnd1 OS CT OS   160.0   101.00
            HrmBnd1 OS CT CY    50.0   110.00
            HrmBnd1 OS CT CZ    50.0   110.00
            HrmBnd1 OS CT N*    50.0   109.50
            HrmBnd1 F  CT F     77.0   109.10
            HrmBnd1 F  CT H1    50.0   109.50
            HrmBnd1 F  CT CT    50.0   109.00
            HrmBnd1 F  CT H2    50.0   109.50
            HrmBnd1 Cl CT CT    50.0   108.50
            HrmBnd1 Cl CT H1    50.0   108.50
            HrmBnd1 Br CT CT    50.0   108.00
            HrmBnd1 Br CT H1    50.0   106.50
            HrmBnd1 I  CT CT    50.0   106.00
            HrmBnd1 CT CC NA    70.0   120.00
            HrmBnd1 CT CC CV    70.0   120.00
            HrmBnd1 CT CC NB    70.0   120.00
            HrmBnd1 CV CC NA    70.0   120.00
            HrmBnd1 CW CC NA    70.0   120.00
            HrmBnd1 CW CC NB    70.0   120.00
            HrmBnd1 CT CC CW    70.0   120.00
            HrmBnd1 H5 CR NA    50.0   120.00
            HrmBnd1 H5 CR NB    50.0   120.00
            HrmBnd1 NA CR NA    70.0   120.00
            HrmBnd1 NA CR NB    70.0   120.00
            HrmBnd1 CC CV H4    50.0   120.00
            HrmBnd1 CC CV NB    70.0   120.00
            HrmBnd1 H4 CV NB    50.0   120.00
            HrmBnd1 CC CW H4    50.0   120.00
            HrmBnd1 CC CW NA    70.0   120.00
            HrmBnd1 C* CW H4    50.0   120.00
            HrmBnd1 C* CW NA    70.0   108.70
            HrmBnd1 H4 CW NA    50.0   120.00
            HrmBnd1 CB C* CT    70.0   128.60
            HrmBnd1 CB C* CW    63.0   106.40
            HrmBnd1 CT C* CW    70.0   125.00
            HrmBnd1 CA CN CB    63.0   122.70
            HrmBnd1 CA CN NA    70.0   132.80
            HrmBnd1 CB CN NA    70.0   104.40
            HrmBnd1 CT CY NY    80.0   180.00
            HrmBnd1 CT CZ CZ    80.0   180.00
            HrmBnd1 CZ CZ HZ    50.0   180.00
            HrmBnd1 C  N  CT    50.0   121.90
            HrmBnd1 C  N  CX    50.0   121.90
            HrmBnd1 C  N  H     50.0   120.00
            HrmBnd1 CT N  H     50.0   118.04
            HrmBnd1 CX N  H     50.0   118.04
            HrmBnd1 CT N  CT    50.0   118.00
            HrmBnd1 CT N  CX    50.0   118.00
            HrmBnd1 H  N  H     35.0   120.00
            HrmBnd1 C  N* CM    70.0   121.60
            HrmBnd1 C  N* CS    70.0   121.60
            HrmBnd1 C  N* CT    70.0   117.60
            HrmBnd1 C  N* H     50.0   119.20
            HrmBnd1 CB N* CK    70.0   105.40
            HrmBnd1 CB N* CP    70.0   105.40
            HrmBnd1 CB N* CT    70.0   125.80
            HrmBnd1 CB N* H     50.0   125.80
            HrmBnd1 CK N* CT    70.0   128.80
            HrmBnd1 CK N* H     50.0   128.80
            HrmBnd1 CP N* CT    70.0   128.80
            HrmBnd1 CP N* H     50.0   128.80
            HrmBnd1 CM N* CT    70.0   121.20
            HrmBnd1 CM N* H     50.0   121.20
            HrmBnd1 CS N* CT    70.0   121.20
            HrmBnd1 CS N* H     50.0   121.20
            HrmBnd1 CA N2 H     50.0   120.00
            HrmBnd1 CA N2 CT    50.0   123.20
            HrmBnd1 CT N2 H     50.0   118.40
            HrmBnd1 H  N2 H     35.0   120.00
            HrmBnd1 CT N3 H     50.0   109.50
            HrmBnd1 CX N3 H     50.0   109.50
            HrmBnd1 CT N3 CT    50.0   109.50
            HrmBnd1 CT N3 CX    50.0   109.50
            HrmBnd1 H  N3 H     35.0   109.50
            HrmBnd1 CT NT H     50.0   109.50
            HrmBnd1 CT NT CT    50.0   109.50
            HrmBnd1 H  NT H     35.0   109.50
            HrmBnd1 C  NA C     70.0   126.40
            HrmBnd1 C  NA CA    70.0   125.20
            HrmBnd1 C  NA H     50.0   116.80
            HrmBnd1 CA NA H     50.0   118.00
            HrmBnd1 CC NA CR    70.0   120.00
            HrmBnd1 CC NA H     50.0   120.00
            HrmBnd1 CR NA CW    70.0   120.00
            HrmBnd1 CR NA H     50.0   120.00
            HrmBnd1 CW NA H     50.0   120.00
            HrmBnd1 CN NA CW    70.0   111.60
            HrmBnd1 CN NA H     50.0   123.10
            HrmBnd1 CB NB CK    70.0   103.80
            HrmBnd1 CB NB CP    70.0   103.80
            HrmBnd1 CC NB CR    70.0   117.00
            HrmBnd1 CR NB CV    70.0   117.00
            HrmBnd1 C  NC CA    70.0   120.50
            HrmBnd1 CA NC CB    70.0   112.20
            HrmBnd1 CA NC CQ    70.0   118.60
            HrmBnd1 CB NC CQ    70.0   111.00
            HrmBnd1 C  OH HO    50.0   113.00
            HrmBnd1 CA OH HO    50.0   113.00
            HrmBnd1 CT OH HO    55.0   108.50
            HrmBnd1 HO OH P     45.0   108.50
            HrmBnd1 C  OS CT    60.0   117.00
            HrmBnd1 CM OS CT    60.0   117.00
            HrmBnd1 CS OS CT    60.0   117.00
            HrmBnd1 CT OS CT    60.0   109.50
            HrmBnd1 CT OS P    100.0   120.50
            HrmBnd1 C  OS P    100.0   120.50
            HrmBnd1 P  OS P    100.0   120.50
            HrmBnd1 O2 P  OH    45.0   108.23
            HrmBnd1 O2 P  O2   140.0   119.90
            HrmBnd1 OP P  OP   140.0   119.90
            HrmBnd1 OP P  OS   100.0   108.23
            HrmBnd1 O2 P  OS   100.0   108.23
            HrmBnd1 OH P  OS    45.0   102.60
            HrmBnd1 OS P  OS    45.0   102.60
            HrmBnd1 CT S  CT    62.0    98.90
            HrmBnd1 CT S  S     68.0   103.70
            HrmBnd1 CT SH HS    43.0    96.00
            HrmBnd1 HS SH HS    35.0    92.07
            HrmBnd1 CB NB EP   150.0   126.00
            HrmBnd1 CC NB EP   150.0   126.00
            HrmBnd1 CK NB EP   150.0   126.00
            HrmBnd1 CP NB EP   150.0   126.00
            HrmBnd1 CR NB EP   150.0   126.00
            HrmBnd1 CV NB EP   150.0   126.00
            HrmBnd1 C  NC EP   150.0   120.00
            HrmBnd1 CA NC EP   150.0   120.00
            HrmBnd1 CB NC EP   150.0   120.00
            HrmBnd1 CQ NC EP   150.0   120.00
            HrmBnd1 CT N3 EP   150.0   109.50
            HrmBnd1 H  N3 EP   150.0   109.50
            HrmBnd1 CT NT EP   150.0   109.50
            HrmBnd1 H  NT EP   150.0   109.50
            HrmBnd1 C  O  EP   150.0   120.00
            HrmBnd1 EP O  EP   150.0   120.00
            HrmBnd1 C  OH EP   150.0   120.00
            HrmBnd1 CT OH EP   150.0   109.50
            HrmBnd1 HO OH EP   150.0   109.50
            HrmBnd1 EP OH EP   150.0   109.50
            HrmBnd1 C  OS EP   150.0   109.50
            HrmBnd1 CM OS EP   150.0   109.50
            HrmBnd1 CS OS EP   150.0   109.50
            HrmBnd1 CT OS EP   150.0   109.50
            HrmBnd1 EP OS EP   150.0   109.50
            HrmBnd1 CT S  EP   150.0    90.00
            HrmBnd1 CT SH EP   150.0    90.00
            HrmBnd1 P  OS EP   150.0   109.50
            HrmBnd1 EP S  EP   150.0   180.00
            HrmBnd1 EP SH EP   150.0   180.00
            HrmBnd1 HS SH EP   150.0    90.00
            HrmBnd1 H1 CI CT    50.0   109.50
            HrmBnd1 H1 CI H1    35.0   109.50
            HrmBnd1 CI CT H1    50.0   109.50
            HrmBnd1 CI CT OS    50.0   109.50
            HrmBnd1 CI CT CT    40.0   109.50
            HrmBnd1 OS CI H1    50.0   109.50
            HrmBnd1 OS CI CT    50.0   109.50
            HrmBnd1 P  OS CI   100.0   120.50
            HrmBnd1 OH CI H1    50.0   109.50
            HrmBnd1 OH CI CT    50.0   109.50
            HrmBnd1 HO OH CI    55.0   108.50
            HrmBnd1 H5 C5 N*    50.0   123.05
            HrmBnd1 H5 C5 NB    50.0   123.05
            HrmBnd1 N* C5 NB    70.0   113.90
            HrmBnd1 CB N* C5    70.0   105.40
            HrmBnd1 C5 N* CT    70.0   128.80
            HrmBnd1 CB NB C5    70.0   103.80
            HrmBnd1 C4 C  NA    70.0   114.10
            HrmBnd1 C4 C  O     80.0   125.30
            HrmBnd1 C4 CA N2    70.0   120.10
            HrmBnd1 C4 CA NC    70.0   121.50
            HrmBnd1 C  C4 C4    63.0   120.70
            HrmBnd1 C  C4 CT    70.0   119.70
            HrmBnd1 C  C4 HA    50.0   119.70
            HrmBnd1 C  C4 H4    50.0   119.70
            HrmBnd1 CA C4 C4    63.0   117.00
            HrmBnd1 CA C4 HA    50.0   123.30
            HrmBnd1 CA C4 H4    50.0   123.30
            HrmBnd1 C4 C4 CT    70.0   119.70
            HrmBnd1 C4 C4 HA    50.0   119.70
            HrmBnd1 C4 C4 H4    50.0   119.70
            HrmBnd1 C4 C4 N*    70.0   121.20
            HrmBnd1 H4 C4 N*    50.0   119.10
            HrmBnd1 H1 CT C4    50.0   109.50
            HrmBnd1 HC CT C4    50.0   109.50
            HrmBnd1 C  N* C4    70.0   121.60
            HrmBnd1 C4 N* CT    70.0   121.20
            HrmBnd1 EP S  S    150.0    96.70
            HrmBnd1 C8 C8 C8    40.0   109.50
            HrmBnd1 C8 C8 CX    40.0   109.50
            HrmBnd1 C8 C8 H1    50.0   109.50
            HrmBnd1 C8 C8 HC    50.0   109.50
            HrmBnd1 C8 C8 HP    50.0   109.50
            HrmBnd1 C8 C8 N2    80.0   111.20
            HrmBnd1 C8 C8 N3    80.0   111.20
            HrmBnd1 CX C8 HC    50.0   109.50
            HrmBnd1 H1 C8 H1    35.0   109.50
            HrmBnd1 H1 C8 N2    50.0   109.50
            HrmBnd1 HC C8 HC    35.0   109.50
            HrmBnd1 HP C8 HP    35.0   109.50
            HrmBnd1 HP C8 N3    50.0   109.50
            HrmBnd1 O2 CO O2    80.0   126.00
            HrmBnd1 C  CX C8    63.0   111.10
            HrmBnd1 C8 CX H1    50.0   109.50
            HrmBnd1 C8 CX N     80.0   109.70
            HrmBnd1 C8 CX N3    80.0   111.20
            HrmBnd1 HP CX C8    50.0   109.50
            HrmBnd1 C8 N2 CA    50.0   123.20
            HrmBnd1 C8 N2 H     50.0   118.40
            HrmBnd1 C8 N3 H     50.0   109.50
            !
            ! Torsions
            !
            AmbTrs *  C  C  *    0 180   0   0  0.000 14.500  0.000  0.000 4.0
            AmbTrs *  C  CA *    0 180   0   0  0.000 14.500  0.000  0.000 4.0
            AmbTrs *  C  CB *    0 180   0   0  0.000 12.000  0.000  0.000 4.0
            AmbTrs *  C  CM *    0 180   0   0  0.000  8.700  0.000  0.000 4.0
            AmbTrs *  C  CS *    0 180   0   0  0.000  8.700  0.000  0.000 4.0
            AmbTrs *  C  CT *    0   0   0   0  0.000  0.000  0.000  0.000 6.0
            AmbTrs *  C  CX *    0   0   0   0  0.000  0.000  0.000  0.000 6.0
            AmbTrs *  C  N  *    0 180   0   0  0.000 10.000  0.000  0.000 4.0
            AmbTrs *  C  N* *    0 180   0   0  0.000  5.800  0.000  0.000 4.0
            AmbTrs *  C  NA *    0 180   0   0  0.000  5.400  0.000  0.000 4.0
            AmbTrs *  C  NC *    0 180   0   0  0.000  8.000  0.000  0.000 2.0
            AmbTrs *  C  O  *    0 180   0   0  0.000 11.200  0.000  0.000 4.0
            AmbTrs *  C  OH *    0 180   0   0  0.000  4.600  0.000  0.000 2.0
            AmbTrs *  C  OS *    0 180   0   0  0.000  5.400  0.000  0.000 2.0
            AmbTrs *  CA CA *    0 180   0   0  0.000 14.500  0.000  0.000 4.0
            AmbTrs *  CA CB *    0 180   0   0  0.000 14.000  0.000  0.000 4.0
            AmbTrs *  CA CM *    0 180   0   0  0.000 10.200  0.000  0.000 4.0
            AmbTrs *  CA CS *    0 180   0   0  0.000 10.200  0.000  0.000 4.0
            AmbTrs *  CA CN *    0 180   0   0  0.000 14.500  0.000  0.000 4.0
            AmbTrs *  CA CT *    0   0   0   0  0.000  0.000  0.000  0.000 6.0
            AmbTrs *  CA N2 *    0 180   0   0  0.000  9.600  0.000  0.000 4.0
            AmbTrs *  CA NA *    0 180   0   0  0.000  6.000  0.000  0.000 4.0
            AmbTrs *  CA NC *    0 180   0   0  0.000  9.600  0.000  0.000 2.0
            AmbTrs *  CA OH *    0 180   0   0  0.000  1.800  0.000  0.000 2.0
            AmbTrs *  CB CB *    0 180   0   0  0.000 21.800  0.000  0.000 4.0
            AmbTrs *  CB CN *    0 180   0   0  0.000 12.000  0.000  0.000 4.0
            AmbTrs *  CB N* *    0 180   0   0  0.000  6.600  0.000  0.000 4.0
            AmbTrs *  CB NB *    0 180   0   0  0.000  5.100  0.000  0.000 2.0
            AmbTrs *  CB NC *    0 180   0   0  0.000  8.300  0.000  0.000 2.0
            AmbTrs *  CC CT *    0   0   0   0  0.000  0.000  0.000  0.000 6.0
            AmbTrs *  CC CV *    0 180   0   0  0.000 20.600  0.000  0.000 4.0
            AmbTrs *  CC CW *    0 180   0   0  0.000 21.500  0.000  0.000 4.0
            AmbTrs *  CC NA *    0 180   0   0  0.000  5.600  0.000  0.000 4.0
            AmbTrs *  CC NB *    0 180   0   0  0.000  4.800  0.000  0.000 2.0
            AmbTrs *  CD CD *    0 180   0   0  0.000  4.000  0.000  0.000 4.0
            AmbTrs *  CD CT *    0   0   0   0  0.000  0.000  0.000  0.000 6.0
            AmbTrs *  CD CM *    0 180   0   0  0.000 26.600  0.000  0.000 4.0
            AmbTrs *  CD CS *    0 180   0   0  0.000 26.600  0.000  0.000 4.0
            AmbTrs *  CK N* *    0 180   0   0  0.000  6.800  0.000  0.000 4.0
            AmbTrs *  CK NB *    0 180   0   0  0.000 20.000  0.000  0.000 2.0
            AmbTrs *  CP N* *    0 180   0   0  0.000  6.800  0.000  0.000 4.0
            AmbTrs *  CP NB *    0 180   0   0  0.000 20.000  0.000  0.000 2.0
            AmbTrs *  CM CM *    0 180   0   0  0.000 26.600  0.000  0.000 4.0
            AmbTrs *  CM CT *    0   0   0   0  0.000  0.000  0.000  0.000 6.0
            AmbTrs *  CM N* *    0 180   0   0  0.000  7.400  0.000  0.000 4.0
            AmbTrs *  CM OS *    0 180   0   0  0.000  2.100  0.000  0.000 2.0
            AmbTrs *  CS CS *    0 180   0   0  0.000 26.600  0.000  0.000 4.0
            AmbTrs *  CS CT *    0   0   0   0  0.000  0.000  0.000  0.000 6.0
            AmbTrs *  CS N* *    0 180   0   0  0.000  7.400  0.000  0.000 4.0
            AmbTrs *  CS OS *    0 180   0   0  0.000  2.100  0.000  0.000 2.0
            AmbTrs *  CN NA *    0 180   0   0  0.000  6.100  0.000  0.000 4.0
            AmbTrs *  CQ NC *    0 180   0   0  0.000 13.600  0.000  0.000 2.0
            AmbTrs *  CT CT *    0   0   0   0  0.000  0.000  1.400  0.000 9.0
            AmbTrs *  CT CX *    0   0   0   0  0.000  0.000  1.400  0.000 9.0
            AmbTrs *  CT CY *    0   0   0   0  0.000  0.000  0.000  0.000 3.0
            AmbTrs *  CT CZ *    0   0   0   0  0.000  0.000  0.000  0.000 3.0
            AmbTrs *  CT N  *    0   0   0   0  0.000  0.000  0.000  0.000 6.0
            AmbTrs *  CX N  *    0   0   0   0  0.000  0.000  0.000  0.000 6.0
            AmbTrs *  CT N* *    0   0   0   0  0.000  0.000  0.000  0.000 6.0
            AmbTrs *  CT N2 *    0   0   0   0  0.000  0.000  0.000  0.000 6.0
            AmbTrs *  CT NT *    0   0   0   0  0.000  0.000  1.800  0.000 6.0
            AmbTrs *  CT N3 *    0   0   0   0  0.000  0.000  1.400  0.000 9.0
            AmbTrs *  CX N3 *    0   0   0   0  0.000  0.000  1.400  0.000 9.0
            AmbTrs *  CT OH *    0   0   0   0  0.000  0.000  0.500  0.000 3.0
            AmbTrs *  CT OS *    0   0   0   0  0.000  0.000  1.150  0.000 3.0
            AmbTrs *  CT S  *    0   0   0   0  0.000  0.000  1.000  0.000 3.0
            AmbTrs *  CT SH *    0   0   0   0  0.000  0.000  0.750  0.000 3.0
            AmbTrs *  C* CB *    0 180   0   0  0.000  6.700  0.000  0.000 4.0
            AmbTrs *  C* CT *    0   0   0   0  0.000  0.000  0.000  0.000 6.0
            AmbTrs *  C* CW *    0 180   0   0  0.000 26.100  0.000  0.000 4.0
            AmbTrs *  CR NA *    0 180   0   0  0.000  9.300  0.000  0.000 4.0
            AmbTrs *  CR NB *    0 180   0   0  0.000 10.000  0.000  0.000 2.0
            AmbTrs *  CV NB *    0 180   0   0  0.000  4.800  0.000  0.000 2.0
            AmbTrs *  CW NA *    0 180   0   0  0.000  6.000  0.000  0.000 4.0
            AmbTrs *  OH P  *    0   0   0   0  0.000  0.000  0.750  0.000 3.0
            AmbTrs *  OS P  *    0   0   0   0  0.000  0.000  0.750  0.000 3.0
            AmbTrs *  CI OS *    0   0   0   0  0.000  0.000  1.150  0.000 3.0
            AmbTrs *  CI OH *    0   0   0   0  0.000  0.000  0.500  0.000 3.0
            AmbTrs *  CI CT *    0   0   0   0  0.000  0.000  1.400  0.000 9.0
            AmbTrs *  C5 N* *    0 180   0   0  0.000  6.800  0.000  0.000 4.0
            AmbTrs *  C5 NB *    0 180   0   0  0.000 20.000  0.000  0.000 2.0
            AmbTrs *  C  C4 *    0 180   0   0  0.000  8.700  0.000  0.000 4.0
            AmbTrs *  CA C4 *    0 180   0   0  0.000 10.200  0.000  0.000 4.0
            AmbTrs *  C4 C4 *    0 180   0   0  0.000 26.600  0.000  0.000 4.0
            AmbTrs *  C4 CT *    0   0   0   0  0.000  0.000  0.000  0.000 6.0
            AmbTrs *  C4 N* *    0 180   0   0  0.000  7.400  0.000  0.000 4.0
            AmbTrs CT OS CT CI   0 180   0   0  0.000  0.100  0.383  0.000 1.0
            AmbTrs H1 CI CT OS   0   0   0   0  0.250  0.000  0.000  0.000 1.0
            AmbTrs H1 CI CT OH   0   0   0   0  0.250  0.000  0.000  0.000 1.0
            AmbTrs H1 CT CI OS   0   0   0   0  0.250  0.000  0.000  0.000 1.0
            AmbTrs H1 CT CI OH   0   0   0   0  0.250  0.000  0.000  0.000 1.0
            AmbTrs CI CT CT CT 180 180   0   0  0.200  0.250  0.180  0.000 1.0
            AmbTrs OP P  OS CA 180   0 180   0  0.000  0.000  0.000  0.000 1.0
            AmbTrs CC NA P  OP   0   0   0   0  0.000  0.000  0.240  0.000 1.0
            AmbTrs CR NA P  OP   0   0   0   0  0.000  0.000  0.000  0.000 1.0
            AmbTrs OS P  OS CI  31 351 357   0  0.185  1.257  0.355  0.000 1.0
            AmbTrs OH P  OS CI  31 351 357   0  0.185  1.257  0.355  0.000 1.0
            AmbTrs CT CT CI OS 190 295 348   0  1.178  0.092  0.963  0.000 1.0
            AmbTrs CT CT CI OH 190 295 348   0  1.178  0.092  0.963  0.000 1.0
            AmbTrs HC CT C4 C4   0   0 180   0  1.150  0.000  0.380  0.000 1.0
            AmbTrs C4 C4 C  O    0 180   0   0  0.000  2.175  0.300  0.000 1.0
            AmbTrs OS CT N* C5  68  15 171  19  0.966  1.074  0.458  0.309 1.0
            AmbTrs OS CT N* CP  74   6 168   3  0.705  1.065  0.443  0.256 1.0
            AmbTrs OS CT N* C4 146  16 185  32  1.225  1.635  0.937  0.310 1.0
            AmbTrs OS CT N* CS 149  16 179  16  1.025  1.749  0.581  0.351 1.0
            AmbTrs C  N  CX C    0   0   0   0  0.000  0.270  0.420  0.000 1.0
            AmbTrs N  CX C  N  180 180 180   0  0.450  1.580  0.550  0.000 1.0
            AmbTrs CT CT N  C    0   0   0   0  2.000  2.000  0.400  0.000 1.0
            AmbTrs CT CT C  N    0   0   0   0  0.200  0.200  0.400  0.000 1.0
            AmbTrs CT CX C  N    0   0   0   0  0.200  0.200  0.400  0.000 1.0
            AmbTrs CX CT C  N    0   0   0   0  0.200  0.200  0.400  0.000 1.0
            AmbTrs H  N  C  O    0 180   0   0  2.000  2.500  0.000  0.000 1.0
            AmbTrs CT S  S  CT   0   0   0   0  0.000  3.500  0.600  0.000 1.0
            AmbTrs OH P  OS CT   0   0   0   0  0.000  1.200  0.250  0.000 1.0
            AmbTrs OS P  OS CT   0   0   0   0  0.000  1.200  0.250  0.000 1.0
            AmbTrs H1 CT C  O    0   0 180   0  0.800  0.000  0.080  0.000 1.0
            AmbTrs H1 CX C  O    0   0 180   0  0.800  0.000  0.080  0.000 1.0
            AmbTrs HC CT C  O    0   0 180   0  0.800  0.000  0.080  0.000 1.0
            AmbTrs HC CT CT HC   0   0   0   0  0.000  0.000  0.150  0.000 1.0
            AmbTrs HC CT CT CT   0   0   0   0  0.000  0.000  0.160  0.000 1.0
            AmbTrs HC CT CT CX   0   0   0   0  0.000  0.000  0.160  0.000 1.0
            AmbTrs HC CT CM CM   0   0 180   0  1.150  0.000  0.380  0.000 1.0
            AmbTrs HC CT CS CS   0   0 180   0  1.150  0.000  0.380  0.000 1.0
            AmbTrs HO OH CT CT   0   0   0   0  0.250  0.000  0.160  0.000 1.0
            AmbTrs HO OH CT CX   0   0   0   0  0.250  0.000  0.160  0.000 1.0
            AmbTrs HO OH C  O    0 180   0   0  1.900  2.300  0.000  0.000 1.0
            AmbTrs CM CM C  O    0 180   0   0  0.000  2.175  0.300  0.000 1.0
            AmbTrs CT CM CM CT 180 180   0   0  1.900  6.650  0.000  0.000 1.0
            AmbTrs CS CS C  O    0 180   0   0  0.000  2.175  0.300  0.000 1.0
            AmbTrs CT CS CS CT 180 180   0   0  1.900  6.650  0.000  0.000 1.0
            AmbTrs CT CT CT CT 180 180   0   0  0.200  0.250  0.180  0.000 1.0
            AmbTrs CX CT CT CT 180 180   0   0  0.200  0.250  0.180  0.000 1.0
            AmbTrs CT CT NT CT   0 180   0   0  0.000  0.480  0.300  0.000 1.0
            AmbTrs CT CT OS CT   0 180   0   0  0.000  0.100  0.383  0.000 1.0
            AmbTrs CT CT OS C  180   0   0   0  0.800  0.000  0.383  0.000 1.0
            AmbTrs CT OS CT OS 180 180   0   0  1.350  0.850  0.100  0.000 1.0
            AmbTrs CT OS CT N*   0   0   0   0  0.000  0.650  0.383  0.000 1.0
            AmbTrs CT CZ CZ HZ   0   0   0   0  0.000  0.000  0.000  0.000 1.0
            AmbTrs O  C  OS CT 180 180   0   0  1.400  2.700  0.000  0.000 1.0
            AmbTrs OS CT N* CK   0   0   0   0  2.500  0.000  0.000  0.000 1.0
            AmbTrs OS CT N* CM   0   0   0   0  2.500  0.000  0.000  0.000 1.0
            AmbTrs OS CT CT OS   0   0   0   0  0.000  1.175  0.144  0.000 1.0
            AmbTrs OS CT CT OH   0   0   0   0  0.000  1.175  0.144  0.000 1.0
            AmbTrs OH CT CT OH   0   0   0   0  0.000  1.175  0.144  0.000 1.0
            AmbTrs F  CT CT F  180   0   0   0  1.200  0.000  0.000  0.000 1.0
            AmbTrs Cl CT CT Cl 180   0   0   0  0.450  0.000  0.000  0.000 1.0
            AmbTrs Br CT CT Br 180   0   0   0  0.000  0.000  0.000  0.000 1.0
            AmbTrs H1 CT CT OS   0   0   0   0  0.250  0.000  0.000  0.000 1.0
            AmbTrs H1 CT CT OH   0   0   0   0  0.250  0.000  0.000  0.000 1.0
            AmbTrs H1 CX CT OH   0   0   0   0  0.250  0.000  0.000  0.000 1.0
            AmbTrs H1 CT CT F    0   0   0   0  0.190  0.000  0.000  0.000 1.0
            AmbTrs H1 CT CT Cl   0   0   0   0  0.250  0.000  0.000  0.000 1.0
            AmbTrs H1 CT CT Br   0   0   0   0  0.550  0.000  0.000  0.000 1.0
            AmbTrs HC CT CT OS   0   0   0   0  0.250  0.000  0.000  0.000 1.0
            AmbTrs HC CT CT OH   0   0   0   0  0.250  0.000  0.000  0.000 1.0
            AmbTrs HC CT CT F    0   0   0   0  0.190  0.000  0.000  0.000 1.0
            AmbTrs HC CT CT Cl   0   0   0   0  0.250  0.000  0.000  0.000 1.0
            AmbTrs HC CT CT Br   0   0   0   0  0.550  0.000  0.000  0.000 1.0
            AmbTrs H1 CT NT EP   0   0   0   0  0.000  0.000  0.000  0.000 1.0
            AmbTrs CT CT NT EP   0   0   0   0  0.000  0.000  0.000  0.000 1.0
            AmbTrs CT C  N  EP   0 180   0   0  0.000  0.000  0.000  0.000 1.0
            AmbTrs O  C  N  EP   0 180   0   0  0.000  0.000  0.000  0.000 1.0
            AmbTrs H1 CT OH EP   0   0   0   0  0.000  0.000  0.000  0.000 1.0
            AmbTrs CT CT OH EP   0   0   0   0  0.000  0.000  0.000  0.000 1.0
            AmbTrs H1 CT OS EP   0   0   0   0  0.000  0.000  0.000  0.000 1.0
            AmbTrs H2 CT OS EP   0   0   0   0  0.000  0.000  0.000  0.000 1.0
            AmbTrs CT CT OS EP   0   0   0   0  0.000  0.000  0.000  0.000 1.0
            AmbTrs CM CM OS EP   0 180   0   0  0.000  0.000  0.000  0.000 1.0
            AmbTrs HA CM OS EP   0 180   0   0  0.000  0.000  0.000  0.000 1.0
            AmbTrs H4 CM OS EP   0 180   0   0  0.000  0.000  0.000  0.000 1.0
            AmbTrs CS CS OS EP   0 180   0   0  0.000  0.000  0.000  0.000 1.0
            AmbTrs HA CS OS EP   0 180   0   0  0.000  0.000  0.000  0.000 1.0
            AmbTrs H4 CS OS EP   0 180   0   0  0.000  0.000  0.000  0.000 1.0
            AmbTrs N  CT CT OH   0   0   0   0  0.000  1.490  0.156  0.000 1.0
            AmbTrs EP S  S  CT   0   0   0   0  0.000  0.000  0.000  0.000 1.0
            AmbTrs EP S  S  EP   0   0   0   0  0.000  0.000  0.000  0.000 1.0
            AmbTrs C8 CX N  C    0   0   0   0  2.000  1.800  0.800  0.000 1.0
            AmbTrs CT CX N  C    0   0   0   0  2.000  1.800  0.800  0.000 1.0
            AmbTrs N  C  CX C8   0   0   0   0  0.200  0.200  0.400  0.000 1.0
            AmbTrs N  C  CX CT   0   0   0   0  0.200  0.200  0.400  0.000 1.0
            AmbTrs *  C8 C8 *    0   0   0   0  0.000  0.000  1.400  0.000 9.0
            AmbTrs C8 C8 C8 HC   0   0   0   0  0.000  0.000  0.160  0.000 1.0
            AmbTrs CX C8 C8 HC   0   0   0   0  0.000  0.000  0.160  0.000 1.0
            AmbTrs HC C8 C8 HC   0   0   0   0  0.000  0.000  0.150  0.000 1.0
            AmbTrs *  C8 CX *    0   0   0   0  0.000  0.000  1.400  0.000 9.0
            AmbTrs *  C8 N2 *    0   0   0   0  0.000  0.000  0.000  0.000 6.0
            AmbTrs *  C8 N3 *    0   0   0   0  0.000  0.000  1.400  0.000 9.0
            AmbTrs C  CX C8 C8   0   0   0   0  0.000  0.000  1.400  0.000 9.0
            AmbTrs N  CX C8 C8   0   0   0   0  0.000  0.000  1.400  0.000 9.0
            AmbTrs N3 CX C8 C8   0   0   0   0  0.000  0.000  1.400  0.000 9.0
            AmbTrs CX C8 C8 C8 180 180   0   0  0.200  0.250  0.180  0.000 1.0
            AmbTrs C8 C8 C8 N2   0   0   0   0  0.000  0.000  1.400  0.000 9.0
            AmbTrs C8 C8 N2 CA   0   0   0   0  0.000  0.000  0.000  0.000 1.0
            AmbTrs C8 C8 C8 C8 180 180   0   0  0.200  0.250  0.180  0.000 1.0
            AmbTrs C8 C8 C8 N3   0   0   0   0  0.000  0.000  1.400  0.000 9.0
            AmbTrs C8 N2 CA N2   0 180   0   0  0.000  2.400  0.000  0.000 1.0
            AmbTrs H  N2 CA N2   0 180   0   0  0.000  2.400  0.000  0.000 1.0
            AmbTrs C8 C8 N3 H    0   0   0   0  0.000  0.000  1.400  0.000 9.0
            AmbTrs C  CX CT CC 180 180   0   0  0.143  0.244  0.219  0.025 1.0
            AmbTrs N  CX CT CC 180 180   0   0  0.306  0.221  0.219  0.089 1.0
            AmbTrs N3 CX CT CC 180 180   0   0  0.306  0.221  0.219  0.089 1.0
            AmbTrs CX CT CC NA 180 180   0 180  0.160  0.392  0.686  0.037 1.0
            AmbTrs CX CT CC CV 180   0 180 180  0.674  0.750  0.122  0.010 1.0
            AmbTrs CX CT CC NB   0   0   0 180  0.690  0.204  0.740  0.047 1.0
            AmbTrs C  CX CT C* 180 180   0   0  0.017  0.353  0.234  0.074 1.0
            AmbTrs N  CX CT C*   0 180   0   0  0.079  0.313  0.234  0.031 1.0
            AmbTrs N3 CX CT C*   0 180   0   0  0.079  0.313  0.234  0.031 1.0
            AmbTrs CX CT C* CB   0   0   0 180  0.365  0.408  0.819  0.095 1.0
            AmbTrs CX CT C* CW   0   0   0   0  0.000  0.000  0.000  0.000 1.0
            AmbTrs C  CX CT CA   0 180   0 180  0.055  0.469  0.192  0.012 1.0
            AmbTrs N  CX CT CA 180 180   0 180  0.012  0.290  0.192  0.007 1.0
            AmbTrs N3 CX CT CA 180 180   0 180  0.012  0.290  0.192  0.007 1.0
            AmbTrs CX CT CA CA   0 180   0 180  0.000  0.069  0.000  0.048 1.0
            AmbTrs CA C  OH HO   0 180   0   0  0.000  0.883  0.000  0.065 1.0
            !
            ! Improper torsions
            !
            ImpTrs *  *  C  O   10.5  180.0 2.0
            ImpTrs *  O2 C  O2  10.5  180.0 2.0
            ImpTrs *  *  N  H    1.0  180.0 2.0
            ImpTrs *  *  N2 H    1.0  180.0 2.0
            ImpTrs *  *  NA H    1.0  180.0 2.0
            ImpTrs *  N2 CA N2  10.5  180.0 2.0
            ImpTrs *  CT N  CT   1.0  180.0 2.0
            ImpTrs *  CT N  CX   1.0  180.0 2.0
            ImpTrs *  *  CA HA   1.1  180.0 2.0
            ImpTrs *  *  CW H4   1.1  180.0 2.0
            ImpTrs *  *  CR H5   1.1  180.0 2.0
            ImpTrs *  *  CV H4   1.1  180.0 2.0
            ImpTrs *  *  CQ H5   1.1  180.0 2.0
            ImpTrs *  *  CK H5   1.1  180.0 2.0
            ImpTrs *  *  CP H5   1.1  180.0 2.0
            ImpTrs *  *  CM H4   1.1  180.0 2.0
            ImpTrs *  *  CM HA   1.1  180.0 2.0
            ImpTrs *  *  CS H4   1.1  180.0 2.0
            ImpTrs *  *  CS HA   1.1  180.0 2.0
            ImpTrs *  *  CA H4   1.1  180.0 2.0
            ImpTrs *  *  CA H5   1.1  180.0 2.0
            ImpTrs CB CK N* CT   1.0  180.0 2.0
            ImpTrs CB CP N* CT   1.0  180.0 2.0
            ImpTrs C  CM N* CT   1.0  180.0 2.0
            ImpTrs C  CS N* CT   1.0  180.0 2.0
            ImpTrs C  CS CM CT   1.1  180.0 2.0
            ImpTrs CT O  C  OH  10.5  180.0 2.0
            ImpTrs CT CV CC NA   1.1  180.0 2.0
            ImpTrs CT CW CC NB   1.1  180.0 2.0
            ImpTrs CT CW CC NA   1.1  180.0 2.0
            ImpTrs CB CT C* CW   1.1  180.0 2.0
            ImpTrs CA CA CA CT   1.1  180.0 2.0
            ImpTrs C  CM CM CT   1.1  180.0 2.0
            ImpTrs C  CS CS CT   1.1  180.0 2.0
            ImpTrs CM N2 CA NC   1.1  180.0 2.0
            ImpTrs CS N2 CA NC   1.1  180.0 2.0
            ImpTrs CB N2 CA NC   1.1  180.0 2.0
            ImpTrs N2 NA CA NC   1.1  180.0 2.0
            ImpTrs CA CA C  OH   1.1  180.0 2.0
            ImpTrs CA CA CA OH   1.1  180.0 2.0
            ImpTrs H5 O  C  OH   1.1  180.0 2.0
            ImpTrs H5 O  C  OS   1.1  180.0 2.0
            ImpTrs CM CT CM HA   1.1  180.0 2.0
            ImpTrs CS CT CS HA   1.1  180.0 2.0
            ImpTrs Br CA CA CA   1.1  180.0 2.0
            ImpTrs CM H4 C  O    1.1  180.0 2.0
            ImpTrs CS H4 C  O    1.1  180.0 2.0
            ImpTrs C  CT N  H    1.1  180.0 2.0
            ImpTrs C  CX N  H    1.1  180.0 2.0
            ImpTrs C  CT N  O    1.1  180.0 2.0
            ImpTrs *  *  C5 H5   1.1  180.0 2.0
            ImpTrs CB C5 N* CT   1.0  180.0 2.0
            ImpTrs *  *  C4 H4   1.1  180.0 2.0
            ImpTrs *  *  C4 HA   1.1  180.0 2.0
            ImpTrs C  C4 N* CT   1.0  180.0 2.0
            ImpTrs C  C4 C4 CT   1.1  180.0 2.0
            ImpTrs C4 N2 CA NC   1.1  180.0 2.0
            ImpTrs CA CA C  OS   1.1  180.0 2.0
            ImpTrs CR CC NA P    1.1  180.0 2.0
            ImpTrs *  O2 CO O2  10.5  180.0 2.0
            !
            ! Vanderwaals parameters
            !
            VDW H  0.6000  0.0157
            VDW HO 0.0000  0.0000
            VDW HS 0.6000  0.0157
            VDW HC 1.4870  0.0157
            VDW H1 1.3870  0.0157
            VDW H2 1.2870  0.0157
            VDW H3 1.1870  0.0157
            VDW HP 1.1000  0.0157
            VDW HA 1.4590  0.0150
            VDW H4 1.4090  0.0150
            VDW H5 1.3590  0.0150
            VDW HW 0.0000  0.0000
            VDW HZ 1.4590  0.0150
            VDW O  1.6612  0.2100
            VDW O2 1.6612  0.2100
            VDW OW 1.7683  0.1520
            VDW OH 1.7210  0.2104
            VDW OS 1.6837  0.1700
            VDW OP 1.8500  0.1700
            VDW C* 1.9080  0.0860
            VDW CB 1.9080  0.0860
            VDW CC 1.9080  0.0860
            VDW CD 1.9080  0.0860
            VDW CK 1.9080  0.0860
            VDW CM 1.9080  0.0860
            VDW CN 1.9080  0.0860
            VDW CQ 1.9080  0.0860
            VDW CR 1.9080  0.0860
            VDW CV 1.9080  0.0860
            VDW CW 1.9080  0.0860
            VDW CY 1.9080  0.0860
            VDW CZ 1.9080  0.0860
            VDW CP 1.9080  0.0860
            VDW CS 1.9080  0.0860
            VDW CI 1.9080  0.1094
            VDW C5 1.9080  0.0860
            VDW C4 1.9080  0.0860
            VDW CT 1.9080  0.1094
            VDW CX 1.9080  0.1094
            VDW C  1.9080  0.0860
            VDW N  1.8240  0.1700
            VDW NA 1.8240  0.1700
            VDW N2 1.8240  0.1700
            VDW N* 1.8240  0.1700
            VDW NC 1.8240  0.1700
            VDW NB 1.8240  0.1700
            VDW NT 1.8240  0.1700
            VDW NY 1.8240  0.1700
            VDW N3 1.8240  0.1700
            VDW S  2.0000  0.2500
            VDW SH 2.0000  0.2500
            VDW P  2.1000  0.2000
            VDW MG 0.7926  0.8947
            VDW C0 1.7131  0.459789
            VDW Zn 1.10    0.0125
            VDW F  1.75    0.061
            VDW Cl 1.948   0.265
            VDW Br 2.22    0.320
            VDW I  2.35    0.40
            VDW EP 0.00    0.0000
            VDW C8 1.9080  0.1094
            VDW CO 1.9080  0.0860
 Initial command:
 /share/apps/gaussian//g16/l1.exe "/tmp/121700.mgr/Gau-452833.inp" -scrdir="/tmp/121700.mgr/"
 Entering Link 1 = /share/apps/gaussian//g16/l1.exe PID=    452845.
  
 Copyright (c) 1988-2017, Gaussian, Inc.  All Rights Reserved.
  
 This is part of the Gaussian(R) 16 program.  It is based on
 the Gaussian(R) 09 system (copyright 2009, Gaussian, Inc.),
 the Gaussian(R) 03 system (copyright 2003, Gaussian, Inc.),
 the Gaussian(R) 98 system (copyright 1998, Gaussian, Inc.),
 the Gaussian(R) 94 system (copyright 1995, Gaussian, Inc.),
 the Gaussian 92(TM) system (copyright 1992, Gaussian, Inc.),
 the Gaussian 90(TM) system (copyright 1990, Gaussian, Inc.),
 the Gaussian 88(TM) system (copyright 1988, Gaussian, Inc.),
 the Gaussian 86(TM) system (copyright 1986, Carnegie Mellon
 University), and the Gaussian 82(TM) system (copyright 1983,
 Carnegie Mellon University). Gaussian is a federally registered
 trademark of Gaussian, Inc.
  
 This software contains proprietary and confidential information,
 including trade secrets, belonging to Gaussian, Inc.
  
 This software is provided under written license and may be
 used, copied, transmitted, or stored only in accord with that
 written license.
  
 The following legend is applicable only to US Government
 contracts under FAR:
  
                    RESTRICTED RIGHTS LEGEND
  
 Use, reproduction and disclosure by the US Government is
 subject to restrictions as set forth in subparagraphs (a)
 and (c) of the Commercial Computer Software - Restricted
 Rights clause in FAR 52.227-19.
  
 Gaussian, Inc.
 340 Quinnipiac St., Bldg. 40, Wallingford CT 06492
  
  
 ---------------------------------------------------------------
 Warning -- This program may not be used in any manner that
 competes with the business of Gaussian, Inc. or will provide
 assistance to any competitor of Gaussian, Inc.  The licensee
 of this program is prohibited from giving any competitor of
 Gaussian, Inc. access to this program.  By using this program,
 the user acknowledges that Gaussian, Inc. is engaged in the
 business of creating and licensing software in the field of
 computational chemistry and represents and warrants to the
 licensee that it is not a competitor of Gaussian, Inc. and that
 it will not use this program in any manner prohibited above.
 ---------------------------------------------------------------
  

 Cite this work as:
 Gaussian 16, Revision B.01,
 M. J. Frisch, G. W. Trucks, H. B. Schlegel, G. E. Scuseria, 
 M. A. Robb, J. R. Cheeseman, G. Scalmani, V. Barone, 
 G. A. Petersson, H. Nakatsuji, X. Li, M. Caricato, A. V. Marenich, 
 J. Bloino, B. G. Janesko, R. Gomperts, B. Mennucci, H. P. Hratchian, 
 J. V. Ortiz, A. F. Izmaylov, J. L. Sonnenberg, D. Williams-Young, 
 F. Ding, F. Lipparini, F. Egidi, J. Goings, B. Peng, A. Petrone, 
 T. Henderson, D. Ranasinghe, V. G. Zakrzewski, J. Gao, N. Rega, 
 G. Zheng, W. Liang, M. Hada, M. Ehara, K. Toyota, R. Fukuda, 
 J. Hasegawa, M. Ishida, T. Nakajima, Y. Honda, O. Kitao, H. Nakai, 
 T. Vreven, K. Throssell, J. A. Montgomery, Jr., J. E. Peralta, 
 F. Ogliaro, M. J. Bearpark, J. J. Heyd, E. N. Brothers, K. N. Kudin, 
 V. N. Staroverov, T. A. Keith, R. Kobayashi, J. Normand, 
 K. Raghavachari, A. P. Rendell, J. C. Burant, S. S. Iyengar, 
 J. Tomasi, M. Cossi, J. M. Millam, M. Klene, C. Adamo, R. Cammi, 
 J. W. Ochterski, R. L. Martin, K. Morokuma, O. Farkas, 
 J. B. Foresman, and D. J. Fox, Gaussian, Inc., Wallingford CT, 2016.
 
 ******************************************
 Gaussian 16:  ES64L-G16RevB.01 20-Dec-2017
                 2-Jan-2024 
 ******************************************
 %mem=24GB
 %nprocshared=12
 Will use up to   12 processors via shared memory.
 ----------------------------------------------------------------------
 # oniom(external='Gau_Oniom.py model.gjf':amber=softfirst) nosymm geom
 =connectivity force punch=(coord,derivatives)
 ----------------------------------------------------------------------
 1/18=1000020,30=1,38=1,52=2,56=2,57=2,61=3,64=203/1,3;
 2/12=2,15=1,17=6,18=5,40=1/2;
 1/18=1000020,30=1,38=1,52=2,53=3172,61=3,64=203/20;
 3/5=30,11=9,25=1,30=1,41=10300000,43=2,71=1/1;
 4/20=11,22=1,24=3/2;
 7/7=1,30=1,33=-1,44=-1/16;
 1/18=1000020,30=1,52=2,53=2032,61=3/20;
 3/11=9,25=1,30=1,41=9900000,43=2,71=1/1;
 4/20=17,22=1,24=3,113=2,114=2/2;
 6/7=2,8=2,9=2,10=2/1;
 7/7=1,30=1,33=-1,44=-1/16;
 1/18=1000020,30=1,52=2,53=1022,61=3,64=203/20;
 3/5=30,11=9,25=1,30=1,41=10300000,43=2,71=1/1;
 4/20=11,22=1,24=3/2;
 7/7=1,30=1,33=-1,44=-1/16;
 1/18=1000020,30=1,52=2,53=3015,61=3,64=203/20;
 7/9=1,44=-1,126=2/16;
 1/18=1000020,30=1,52=2,61=3,64=203/3;
 99/10=6/99;
 -------------------
 Title Card Required
 -------------------
 Symbolic Z-matrix:
 Charge = -8 Multiplicity = 1 for low   level calculation on real  system.
 Charge =  0 Multiplicity = 1 for high  level calculation on model system.
 Charge =  0 Multiplicity = 1 for low   level calculation on model system.
 N-N3-0.001700        -1    5.968     28.822    38.723   L 
 C-CT-0.058800        -1    7.361     28.828    38.162   L 
 C-C-0.562100         -1    7.575     27.801    37.02    L 
 O-O--0.588900        -1    7.067     26.66     37.055   L 
 C-CT-0.090900        -1    8.428     28.677    39.267   L 
 C-CT--0.023600       -1    8.639     27.254    39.786   L 
 C-C-0.808700         -1    10.078    26.983    40.238   L 
 O-O2--0.818900       -1    10.757    27.948    40.697   L 
 O-O2--0.818900       -1    10.526    25.801    40.142   L 
 H-H-0.239100         -1    5.76208   27.88323   39.05676  L 
 H-HP-0.120200        -1    7.53155   29.80707   37.71783  L 
 H-HC--0.023200       -1    9.35898   29.02342   38.81793  L 
 H-HC--0.023200       -1    8.1906    29.34373   40.09702  L 
 H-HC--0.031500       -1    7.95182   27.08967   40.61885  L 
 H-HC--0.031500       -1    8.40136   26.51182   39.0324  L 
 H-H-0.239100         -1    5.88741   29.46242   39.49995  L 
 H-H-0.239100         -1    5.28366   29.03502   38.01093  L 
 N-N--0.415700        -1    8.328     28.232    36.017   L 
 C-CT--0.087500       -1    8.55      27.454    34.818   L 
 C-C-0.597300         -1    9.945     26.82     34.887   L 
 O-O--0.567900        -1    10.957    27.522    35.019   L 
 C-CT-0.298500        -1    8.448     28.38     33.596   L 
 C-CT--0.319200       -1    8.515     27.579    32.29    L 
 C-CT--0.319200       -1    7.192     29.18     33.656   L 
 H-H-0.271900         -1    8.86313   29.08203   36.1214  L 
 H-H1-0.096900        -1    7.80844   26.65976   34.71928  L 
 H-HC--0.029700       -1    9.28215   29.0826   33.60347  L 
 H-HC-0.079100        -1    7.70287   26.85126   32.25599  L 
 H-HC-0.079100        -1    8.43203   28.25006   31.43542  L 
 H-HC-0.079100        -1    9.47022   27.05701   32.22228  L 
 H-HC-0.079100        -1    6.33569   28.5188   33.79201  L 
 H-HC-0.079100        -1    7.23058   29.91554   34.45749  L 
 H-HC-0.079100        -1    7.06789   29.72387   32.71955  L 
 N-N--0.516300        -1    9.994     25.492    34.821   L 
 C-CT-0.039700        -1    11.25     24.79     34.693   L 
 C-C-0.536600         -1    11.567    24.533    33.204   L 
 O-O--0.581900        -1    10.68     24.131    32.426   L 
 C-CT-0.056000        -1    11.206    23.479    35.458   L 
 C-CT-0.013600        -1    10.938    23.641    36.941   L 
 C-C-0.805400         -1    10.909    22.335    37.677   L 
 O-O2--0.818800       -1    10.011    21.523    37.435   L 
 O-O2--0.818800       -1    11.791    22.116    38.51    L 
 H-H-0.293600         -1    9.13472   24.96358   34.72349  L 
 H-H1-0.110500        -1    12.06189   25.38072   35.12143  L 
 H-HC--0.017300       -1    10.41877   22.85536   35.03373  L 
 H-HC--0.017300       -1    12.16107   22.96794   35.32887  L 
 H-HC--0.042500       -1    11.71215   24.29051   37.35717  L 
 H-HC--0.042500       -1    9.97733   24.1411   37.08303  L 
 N-N--0.415700        -1    12.82     24.789    32.825   L 
 C-CT--0.038900       -1    13.294    24.594    31.451   L 
 C-C-0.597300         -1    14.228    23.386    31.433   L 
 O-O--0.567900        -1    15.134    23.294    32.274   L 
 C-CT-0.365400        -1    14.012    25.865    30.899   L 
 O-OH--0.676100       -1    13.096    26.957    30.799   L 
 C-CT--0.243800       -1    14.52     25.637    29.405   L 
 H-H-0.271900         -1    13.48834   25.08171   33.52402  L 
 H-H1-0.100700        -1    12.45759   24.38221   30.78828  L 
 H-H1-0.004300        -1    14.85069   26.13857   31.54019  L 
 H-HO-0.410200        -1    13.09852   27.29819   29.88484  L 
 H-HC-0.064200        -1    14.93902   26.56468   29.01607  L 
 H-HC-0.064200        -1    15.29756   24.87397   29.38823  L 
 H-HC-0.064200        -1    13.68799   25.32061   28.77431  L 
 N-N--0.415700        -1    14.01     22.458    30.491   L 
 C-CT--0.002400       -1    14.843    21.245    30.385   L 
 C-C-0.597300         -1    15.478    21.053    28.995   L 
 O-O--0.567900        -1    14.916    21.48     27.991   L 
 C-CT--0.034300       -1    14.022    19.985    30.685   L 
 C-CA-0.011800        -1    13.277    20.029    31.977   L 
 C-CA--0.125600       -1    12.051    20.683    32.066   L 
 C-CA--0.125600       -1    13.806    19.4      33.13    L 
 C-CA--0.170400       -1    11.343    20.716    33.291   L 
 C-CA--0.170400       -1    13.121    19.454    34.338   L 
 C-CA--0.107200       -1    11.876    20.079    34.411   L 
 H-H-0.271900         -1    13.24184   22.57407   29.84504  L 
 H-H1-0.097800        -1    15.65796   21.28616   31.10765  L 
 H-HC-0.029500        -1    13.29651   19.86716   29.88256  L 
 H-HC-0.029500        -1    14.67501   19.11102   30.67351  L 
 H-HA-0.133000        -1    11.63849   21.17639   31.19741  L 
 H-HA-0.133000        -1    14.75605   18.89077   33.07703  L 
 H-HA-0.143000        -1    10.4305   21.27539   33.3646  L 
 H-HA-0.143000        -1    13.53514   18.98925   35.22202  L 
 H-HA-0.129700        -1    11.35068   20.12456   35.35559  L 
 N-N--0.415700        -1    16.611    20.361    28.933   L 
 C-CT-0.033700        -1    17.211    20.022    27.62    L 
 C-C-0.597300         -1    16.646    18.691    27.167   L 
 O-O--0.567900        -1    16.536    17.769    27.976   L 
 C-CT--0.182500       -1    18.763    19.99     27.692   L 
 H-H-0.271900         -1    17.04535   20.01552   29.78027  L 
 H-H1-0.082300        -1    16.93996   20.77836   26.88213  L 
 H-HC-0.060300        -1    19.08416   19.24064   28.41695  L 
 H-HC-0.060300        -1    19.17593   19.74419   26.71326  L 
 H-HC-0.060300        -1    19.13349   20.96828   28.00003  L 
 N-N--0.415700        -1    16.227    18.592    25.905   L 
 C-CT--0.002400       -1    15.975    17.285    25.327   L 
 C-C-0.597300         -1    17.284    16.483    25.355   L 
 O-O--0.567900        -1    18.377    17.035    25.229   L 
 C-CT--0.034300       -1    15.475    17.384    23.865   L 
 C-CA-0.011800        -1    14.06     17.916    23.713   L 
 C-CA--0.125600       -1    12.948    17.104    23.965   L 
 C-CA--0.125600       -1    13.846    19.2      23.232   L 
 C-CA--0.170400       -1    11.669    17.568    23.791   L 
 C-CA--0.170400       -1    12.545    19.697    23.048   L 
 C-CA--0.107200       -1    11.454    18.884    23.338   L 
 H-H-0.271900         -1    16.28643   19.40523   25.30638  L 
 H-H1-0.097800        -1    15.23052   16.75388   25.92232  L 
 H-HC-0.029500        -1    16.16458   18.00814   23.29548  L 
 H-HC-0.029500        -1    15.50357   16.39338   23.42448  L 
 H-HA-0.133000        -1    13.09637   16.09189   24.31313  L 
 H-HA-0.133000        -1    14.69166   19.83077   23.02196  L 
 H-HA-0.143000        -1    10.83535   16.91854   24.01288  L 
 H-HA-0.143000        -1    12.40519   20.70137   22.68686  L 
 H-HA-0.129700        -1    10.4509   19.26049   23.19853  L 
 N-N--0.415700        -1    17.165    15.17     25.511   L 
 C-CT--0.003100       -1    18.264    14.246    25.248   L 
 C-C-0.597300         -1    18.803    14.514    23.821   L 
 O-O--0.567900        -1    18.024    14.749    22.88    L 
 C-CT--0.003600       -1    17.727    12.81     25.355   L 
 C-CT--0.064500       -1    17.72     12.186    26.773   L 
 C-C-0.695100         -1    19.068    12.335    27.507   L 
 O-O--0.608600        -1    19.262    13.301    28.285   L 
 N-N--0.940700        -1    20.01     11.4      27.247   L 
 H-H-0.271900         -1    16.23582   14.78828   25.65206  L 
 H-H1-0.085000        -1    19.07291   14.42058   25.957   L 
 H-HC-0.017100        -1    16.72104   12.75668   24.93645  L 
 H-HC-0.017100        -1    18.36155   12.17128   24.73762  L 
 H-HC-0.035200        -1    16.95309   12.68231   27.36851  L 
 H-HC-0.035200        -1    17.45914   11.13011   26.70052  L 
 H-H-0.425100         -1    20.89407   11.6085   27.6746  L 
 H-H-0.425100         -1    19.88974   10.85186   26.41908  L 
 N-N--0.415700        -1    20.122    14.511    23.643   L 
 C-CT-0.033700        -1    20.711    14.838    22.336   L 
 C-C-0.597300         -1    20.066    14.14     21.108   L 
 O-O--0.567900        -1    19.863    14.771    20.069   L 
 C-CT--0.182500       -1    22.244    14.612    22.36    L 
 H-H-0.271900         -1    20.73455   14.35142   24.42398  L 
 H-H1-0.082300        -1    20.55417   15.90694   22.17429  L 
 H-HC-0.060300        -1    22.46015   13.55396   22.51858  L 
 H-HC-0.060300        -1    22.67406   14.92617   21.40789  L 
 H-HC-0.060300        -1    22.69156   15.20085   23.16119  L 
 N-N--0.516300        -1    19.759    12.848    21.228   L 
 C-CT-0.039700        -1    19.105    12.102    20.138   L 
 C-C-0.536600         -1    17.742    12.659    19.718   L 
 O-O--0.581900        -1    17.422    12.693    18.536   L 
 C-CT-0.056000        -1    18.979    10.618    20.517   L 
 C-CT-0.013600        -1    20.339    9.933     20.616   L 
 C-C-0.805400         -1    21.018    10.128    21.974   L 
 O-O2--0.818800       -1    20.52     10.94     22.815   L 
 O-O2--0.818800       -1    22.064    9.449     22.2     L 
 H-H-0.293600         -1    20.01968   12.35697   22.0764  L 
 H-H1-0.110500        -1    19.73391   12.16677   19.24669  L 
 H-HC--0.017300       -1    18.40593   10.49691   21.43804  L 
 H-HC--0.017300       -1    18.42377   10.11943   19.7222  L 
 H-HC--0.042500       -1    20.17846   8.86189   20.46689  L 
 H-HC--0.042500       -1    20.99005   10.28302   19.81148  L 
 N-N--0.415700        -1    16.955    13.099    20.698   L 
 C-CT--0.059700       -1    15.621    13.681    20.469   L 
 C-C-0.597300         -1    15.729    15.043    19.82    L 
 O-O--0.567900        -1    14.989    15.348    18.895   L 
 C-CT-0.130300        -1    14.848    13.789    21.803   L 
 C-CT--0.043000       -1    14.904    12.461    22.551   L 
 C-CT--0.320400       -1    13.41     14.197    21.551   L 
 C-CT--0.066000       -1    14.067    11.451    21.908   L 
 H-H-0.271900         -1    17.3464   13.12639   21.63092  L 
 H-H1-0.086900        -1    15.07     13.04668   19.77541  L 
 H-HC-0.018700        -1    15.3288   14.5315   22.4319  L 
 H-HC-0.023600        -1    15.91983   12.08617   22.66659  L 
 H-HC-0.023600        -1    14.51977   12.61838   23.56001  L 
 H-HC-0.088200        -1    12.83118   14.11862   22.47184  L 
 H-HC-0.088200        -1    13.37363   15.23859   21.23006  L 
 H-HC-0.088200        -1    12.94922   13.59075   20.76967  L 
 H-HC-0.018600        -1    14.26469   11.41353   20.8446  L 
 H-HC-0.018600        -1    14.30262   10.47843   22.33791  L 
 H-HC-0.018600        -1    13.01059   11.65537   22.07764  L 
 N-N--0.415700        -1    16.696    15.842    20.264   L 
 C-CT-0.033700        -1    16.904    17.153    19.661   L 
 C-C-0.597300         -1    17.293    16.937    18.193   L 
 O-O--0.567900        -1    16.851    17.666    17.319   L 
 C-CT--0.182500       -1    18.029    17.964    20.415   L 
 H-H-0.271900         -1    17.29578   15.52821   21.02019  L 
 H-H1-0.082300        -1    15.97231   17.71958   19.69131  L 
 H-HC-0.060300        -1    18.17183   18.93684   19.94381  L 
 H-HC-0.060300        -1    17.74131   18.11277   21.45551  L 
 H-HC-0.060300        -1    18.97201   17.41504   20.39125  L 
 N-N--0.415700        -1    18.164    15.954    17.955   L 
 C-CT--0.003100       -1    18.56     15.579    16.595   L 
 C-C-0.597300         -1    17.368    15.149    15.703   L 
 O-O--0.567900        -1    17.206    15.619    14.573   L 
 C-CT--0.003600       -1    19.556    14.416    16.686   L 
 C-CT--0.064500       -1    20.365    14.223    15.434   L 
 C-C-0.695100         -1    21.588    13.343    15.678   L 
 O-O--0.608600        -1    21.695    12.666    16.733   L 
 N-N--0.940700        -1    22.525    13.366    14.726   L 
 H-H-0.271900         -1    18.56475   15.44308   18.73833  L 
 H-H1-0.085000        -1    19.04791   16.43379   16.12541  L 
 H-HC-0.017100        -1    20.25236   14.64584   17.49373  L 
 H-HC-0.017100        -1    19.05517   13.4816   16.92329  L 
 H-HC-0.035200        -1    19.7453   13.89164   14.63062  L 
 H-HC-0.035200        -1    20.74702   15.19896   15.13357  L 
 H-H-0.425100         -1    23.31602   12.77295   14.88905  L 
 H-H-0.425100         -1    22.36497   13.86656   13.8689  L 
 N-N--0.415700        -1    16.55     14.242    16.216   L 
 C-CT--0.051800       -1    15.32     13.864    15.534   L 
 C-C-0.597300         -1    14.421    15.065    15.241   L 
 O-O--0.567900        -1    13.962    15.256    14.127   L 
 C-CT--0.110200       -1    14.575    12.858    16.376   L 
 C-CT-0.353100        -1    13.206    12.463    15.812   L 
 C-CT--0.412100       -1    13.347    11.66     14.537   L 
 C-CT--0.412100       -1    12.416    11.721    16.872   L 
 H-H-0.271900         -1    16.78669   13.7984   17.10148  L 
 H-H1-0.092200        -1    15.57815   13.4056   14.57838  L 
 H-HC-0.045700        -1    15.20591   11.98557   16.43337  L 
 H-HC-0.045700        -1    14.44375   13.25605   17.38216  L 
 H-HC--0.036100       -1    12.6339   13.35447   15.60312  L 
 H-HC-0.100000        -1    13.95758   10.77694   14.72529  L 
 H-HC-0.100000        -1    12.35383   11.37398   14.20067  L 
 H-HC-0.100000        -1    13.80981   12.2645   13.75881  L 
 H-HC-0.100000        -1    12.29183   12.34909   17.75415  L 
 H-HC-0.100000        -1    11.43192   11.46201   16.48204  L 
 H-HC-0.100000        -1    12.93934   10.80774   17.1544  L 
 N-N--0.415700        -1    14.163    15.881    16.252   L 
 C-CT--0.023700       -1    13.351    17.068    16.029   L 
 C-C-0.597300         -1    13.9      17.93     14.89    L 
 O-O--0.567900        -1    13.137    18.39     14.061   L 
 C-CT-0.034200        -1    13.177    17.85     17.335   L 
 C-CT-0.001800        -1    12.367    17.079    18.369   L 
 S-S--0.273700        -1    12.262    17.912    19.967   L 
 C-CT--0.053600       -1    11.025    19.105    19.625   L 
 H-H-0.271900         -1    14.52655   15.66671   17.17605  L 
 H-H1-0.088000        -1    12.3582   16.74834   15.70833  L 
 H-HC-0.024100        -1    14.1579   18.08348   17.74997  L 
 H-HC-0.024100        -1    12.66362   18.7872   17.11701  L 
 H-H1-0.044000        -1    11.35731   16.92768   17.98575  L 
 H-H1-0.044000        -1    12.79599   16.09372   18.52527  L 
 H-H1-0.068400        -1    10.84435   19.71437   20.51176  L 
 H-H1-0.068400        -1    11.33391   19.74922   18.80371  L 
 H-H1-0.068400        -1    10.09961   18.59958   19.35179  L 
 N-N--0.415700        -1    15.208    18.136    14.839   L 
 C-CT--0.024900       -1    15.812    18.99     13.787   L 
 C-C-0.597300         -1    15.682    18.311    12.43    L 
 O-O--0.567900        -1    15.436    18.983    11.441   L 
 C-CT-0.211700        -1    17.291    19.276    14.049   L 
 O-OH--0.654600       -1    17.464    20.07     15.224   L 
 H-H-0.271900         -1    15.79011   17.73756   15.56757  L 
 H-H1-0.084300        -1    15.28467   19.94359   13.73664  L 
 H-H1-0.035200        -1    17.82969   18.33645   14.17248  L 
 H-H1-0.035200        -1    17.7118   19.81448   13.19926  L 
 H-HO-0.427500        -1    17.12134   19.61148   16.00267  L 
 N-N--0.415700        -1    15.835    16.986    12.389   L 
 C-CT--0.051800       -1    15.588    16.249    11.147   L 
 C-C-0.597300         -1    14.162    16.49     10.648   L 
 O-O--0.567900        -1    13.948    16.756    9.478    L 
 C-CT--0.110200       -1    15.838    14.741    11.351   L 
 C-CT-0.353100        -1    16.069    13.752    10.185   L 
 C-CT--0.412100       -1    17.278    14.11     9.362    L 
 C-CT--0.412100       -1    16.29     12.344    10.717   L 
 H-H-0.271900         -1    15.99974   16.47267   13.24903  L 
 H-H1-0.092200        -1    16.27105   16.62001   10.38237  L 
 H-HC-0.045700        -1    16.72297   14.65726   11.98269  L 
 H-HC-0.045700        -1    15.0134   14.34597   11.94389  L 
 H-HC--0.036100       -1    15.18301   13.75407   9.55043  L 
 H-HC-0.100000        -1    18.16264   14.17111   9.99056  L 
 H-HC-0.100000        -1    17.43064   13.35071   8.59236  L 
 H-HC-0.100000        -1    17.11379   15.06355   8.86333  L 
 H-HC-0.100000        -1    15.67098   12.13724   11.58958  L 
 H-HC-0.100000        -1    16.04272   11.64322   9.92646  L 
 H-HC-0.100000        -1    17.33717   12.19997   10.92099  L 
 N-N--0.415700        -1    13.186    16.388    11.546   L 
 C-CT--0.059700       -1    11.77     16.575    11.206   L 
 C-C-0.597300         -1    11.474    17.974    10.663   L 
 O-O--0.567900        -1    10.766    18.147    9.653    L 
 C-CT-0.130300        -1    10.916    16.243    12.432   L 
 C-CT--0.043000       -1    10.844    14.714    12.594   L 
 C-CT--0.320400       -1    9.494     16.801    12.259   L 
 C-CT--0.066000       -1    10.626    14.246    14.056   L 
 H-H-0.271900         -1    13.4359   16.12829   12.49666  L 
 H-H1-0.086900        -1    11.50297   15.88097   10.40768  L 
 H-HC-0.018700        -1    11.35971   16.68893   13.32178  L 
 H-HC-0.023600        -1    10.06401   14.2977   11.95435  L 
 H-HC-0.023600        -1    11.78993   14.27322   12.27689  L 
 H-HC-0.088200        -1    8.85638   16.42843   13.05859  L 
 H-HC-0.088200        -1    9.49022   17.88938   12.32122  L 
 H-HC-0.088200        -1    9.07574   16.48026   11.30597  L 
 H-HC-0.018600        -1    9.60059   14.45478   14.34832  L 
 H-HC-0.018600        -1    10.79036   13.17219   14.12583  L 
 H-HC-0.018600        -1    11.29582   14.78391   14.72329  L 
 N-N--0.415700        -1    12.032    18.965    11.343   L 
 C-CT--0.059700       -1    11.95     20.379    10.911   L 
 C-C-0.597300         -1    12.691    20.67     9.599    L 
 O-O--0.567900        -1    12.168    21.401    8.745    L 
 C-CT-0.130300        -1    12.475    21.266    12.043   L 
 C-CT--0.043000       -1    11.502    21.138    13.237   L 
 C-CT--0.320400       -1    12.572    22.755    11.598   L 
 C-CT--0.066000       -1    11.95     21.806    14.505   L 
 H-H-0.271900         -1    12.5449   18.7367   12.19018  L 
 H-H1-0.086900        -1    10.90504   20.63684   10.73837  L 
 H-HC-0.018700        -1    13.4672   20.92367   12.34294  L 
 H-HC-0.023600        -1    10.5377   21.55249   12.94776  L 
 H-HC-0.023600        -1    11.33388   20.09152   13.48202  L 
 H-HC-0.088200        -1    12.90213   23.3803   12.42663  L 
 H-HC-0.088200        -1    13.31026   22.87821   10.80428  L 
 H-HC-0.088200        -1    11.60307   23.1162   11.25327  L 
 H-HC-0.018600        -1    11.95359   22.88903   14.39017  L 
 H-HC-0.018600        -1    11.25407   21.55006   15.30395  L 
 H-HC-0.018600        -1    12.94694   21.45836   14.77795  L 
 N-N--0.415700        -1    13.884    20.087    9.428    L 
 C-CT-0.014300        -1    14.739    20.422    8.287    L 
 C-C-0.597300         -1    14.562    19.634    6.968    L 
 O-O--0.567900        -1    14.788    20.189    5.887    L 
 C-CT--0.204100       -1    16.225    20.381    8.686    L 
 C-C-0.713000         -1    16.572    21.398    9.766    L 
 O-O--0.593100        -1    16.047    22.518    9.784    L 
 N-N--0.919100        -1    17.459    21.004    10.68    L 
 H-H-0.271900         -1    14.27502   19.54701   10.19025  L 
 H-H1-0.104800        -1    14.52806   21.45776   8.00635  L 
 H-HC-0.079700        -1    16.47415   19.38077   9.0338   L 
 H-HC-0.079700        -1    16.84559   20.61187   7.82159  L 
 H-H-0.419600         -1    17.76574   20.04538   10.69036  L 
 H-H-0.419600         -1    17.64518   21.66114   11.41136  L 
 N-N--0.415700        -1    14.265    18.343    7.052    L 
 C-CT--0.038900       -1    14.113    17.516    5.869    L 
 C-C-0.597300         -1    12.931    17.991    4.987    L 
 O-O--0.567900        -1    11.835    18.232    5.487    L 
 C-CT-0.365400        -1    13.899    16.057    6.299    L 
 O-OH--0.676100       -1    14.949    15.643    7.211    L 
 C-CT--0.243800       -1    14.019    15.108    5.111    L 
 H-H-0.271900         -1    14.13219   17.9354   7.97091  L 
 H-H1-0.100700        -1    15.03036   17.56522   5.28202  L 
 H-H1-0.004300        -1    12.92781   15.93447   6.78019  L 
 H-HO-0.410200        -1    14.66014   15.93056   8.09091  L 
 H-HC-0.064200        -1    13.18577   15.25343   4.42632  L 
 H-HC-0.064200        -1    14.9613   15.27791   4.59051  L 
 H-HC-0.064200        -1    14.00079   14.07729   5.46681  L 
 N-N--0.415700        -1    13.166    18.117    3.68     L 
 C-CT--0.002400       -1    12.083    18.29     2.711    L 
 C-C-0.597300         -1    11.217    17.028    2.603    L 
 O-O--0.567900        -1    11.686    15.933    2.215    L 
 C-CT--0.034300       -1    12.604    18.696    1.304    L 
 C-CA-0.011800        -1    11.486    18.98     0.312    L 
 C-CA--0.125600       -1    10.858    20.231    0.285    L 
 C-CA--0.125600       -1    11.037    17.992   -0.561    L 
 C-CA--0.170400       -1    9.786     20.498   -0.614    L 
 C-CA--0.170400       -1    9.967     18.244   -1.459    L 
 C-CA--0.107200       -1    9.348     19.505   -1.477    L 
 H-H-0.271900         -1    14.11294   17.97618   3.33942  L 
 H-H1-0.097800        -1    11.44805   19.10517   3.05829  L 
 H-HC-0.029500        -1    13.2186   19.59197   1.40332  L 
 H-HC-0.029500        -1    13.24254   17.9017   0.91351  L 
 H-HA-0.133000        -1    11.18754   21.00882   0.95923  L 
 H-HA-0.133000        -1    11.50978   17.01915  -0.55289  L 
 H-HA-0.143000        -1    9.30614   21.46809  -0.61711  L 
 H-HA-0.143000        -1    9.63504   17.4707  -2.13752  L 
 H-HA-0.129700        -1    8.53073   19.70379  -2.15748  L 
 N-N--0.415700        -1    9.941     17.18     2.923    L 
 C-CT--0.001400       -1    9.047     16.034    2.998    L 
 C-C-0.597300         -1    7.597     16.53     2.897    L 
 O-O--0.567900        -1    7.074     17.143    3.832    L 
 C-CT--0.015200       -1    9.291     15.259    4.303    L 
 C-CA--0.001100       -1    8.438     14.013    4.396    L 
 C-CA--0.190600       -1    8.753     12.906    3.624    L 
 C-CA--0.190600       -1    7.287     13.962    5.201    L 
 C-CA--0.234100       -1    7.995     11.78     3.641    L 
 C-CA--0.234100       -1    6.498     12.81     5.224    L 
 C-C-0.322600         -1    6.864     11.726    4.431    L 
 O-OH--0.557900       -1    6.141     10.547    4.39     L 
 H-H-0.271900         -1    9.61068   18.09707   3.18589  L 
 H-H1-0.087600        -1    9.24019   15.3631   2.15941  L 
 H-HC-0.029500        -1    10.33952   14.96545   4.36699  L 
 H-HC-0.029500        -1    9.07357   15.89939   5.15242  L 
 H-HA-0.169900        -1    9.63109   12.9346   2.99009  L 
 H-HA-0.169900        -1    7.0199    14.80997   5.81779  L 
 H-HA-0.165600        -1    8.2554    10.90921   3.05425  L 
 H-HA-0.165600        -1    5.63296   12.73476   5.86443  L 
 H-HO-0.399200        -1    5.19575   10.67238   4.50912  L 
 N-N--0.415700        -1    6.942     16.304    1.763    L 
 C-CT--0.024900       -1    5.654     16.95     1.521    L 
 C-C-0.597300         -1    4.465     16.302    2.23     L 
 O-O--0.567900        -1    3.428     16.953    2.403    L 
 C-CT-0.211700        -1    5.387     16.979    0.023    L 
 O-OH--0.654600       -1    6.397     17.76    -0.6      L 
 H-H-0.271900         -1    7.39414   15.77656   1.03091  L 
 H-H1-0.084300        -1    5.69479   17.98672   1.86369  L 
 H-H1-0.035200        -1    5.39315   15.96488  -0.38058  L 
 H-H1-0.035200        -1    4.41969   17.43866  -0.17474  L 
 H-HO-0.427500        -1    7.25039   17.58931  -0.18581  L 
 N-N--0.415700        -1    4.594     15.02     2.575    L 
 C-CT-0.014300        -1    3.47      14.239    3.145    L 
 C-C-0.597300         -1    3.329     14.51     4.67     L 
 O-O--0.567900        -1    3.351     13.602    5.51     L 
 C-CT--0.204100       -1    3.632     12.753    2.72     L 
 C-C-0.713000         -1    2.61      11.794    3.338    L 
 O-O--0.593100        -1    2.989     10.724    3.841    L 
 N-N--0.919100        -1    1.343     12.116    3.236    L 
 H-H-0.271900         -1    5.47904   14.55809   2.43287  L 
 H-H1-0.104800        -1    2.5402    14.60288   2.70168  L 
 H-HC-0.079700        -1    3.53879   12.68053   1.63788  L 
 H-HC-0.079700        -1    4.62196   12.40323   2.99916  L 
 H-H-0.419600         -1    1.05186   12.97338   2.81037  L 
 H-H-0.419600         -1    0.67983   11.49364   3.66861  L 
 N-N--0.347900        -1    3.181     15.795    5.001    L 
 C-CT--0.240000       -1    3.082     16.257    6.377    L 
 C-C-0.734100         -1    1.817     15.766    7.127    L 
 O-O--0.589400        -1    1.828     15.635    8.377    L 
 C-CT--0.009400       -1    3.136     17.795    6.398    L 
 C-CT-0.018700        -1    4.536     18.393    6.079    L 
 C-CT--0.047900       -1    4.45      19.926    6.049    L 
 C-CT--0.014300       -1    5.835     20.6      5.781    L 
 N-N3--0.385400       -1    6.798     20.437    6.934    L 
 H-H-0.274700         -1    3.12045   16.46914   4.24552  L 
 H-H1-0.142600        -1    3.92386   15.87156   6.94503  L 
 H-HC-0.036200        -1    2.40214   18.18598   5.69173  L 
 H-HC-0.036200        -1    2.85179   18.13443   7.39417  L 
 H-HC-0.010300        -1    5.25881   18.06857   6.82303  L 
 H-HC-0.010300        -1    4.86184   18.04304   5.09955  L 
 H-HC-0.062100        -1    3.76944   20.22209   5.25085  L 
 H-HC-0.062100        -1    4.04089   20.29694   6.98864  L 
 H-HP-0.113500        -1    6.26162   20.20012   4.85581  L 
 H-HP-0.113500        -1    5.64943   21.66712   5.61416  L 
 H-H-0.340000         -1    6.33775   20.61996   7.81087  L 
 H-H-0.340000         -1    7.19826   19.5053   6.95284  L 
 H-H-0.340000         -1    7.58296   21.077    6.84236  L 
 N-N--0.516300        -1    0.752     15.442    6.376    L 
 C-CT-0.039700        -1   -0.535     15.176    7.       L 
 C-C-0.536600         -1   -0.529     14.007    7.986    L 
 O-O--0.581900        -1   -1.46      13.883    8.82     L 
 C-CT-0.056000        -1   -1.632     14.965    5.941    L 
 C-CT-0.013600        -1   -1.537     13.599    5.262    L 
 C-C-0.805400         -1   -2.38      13.498    4.001    L 
 O-O2--0.818800       -1   -2.8       14.542    3.442    L 
 O-O2--0.818800       -1   -2.598     12.359    3.576    L 
 H-H-0.293600         -1    0.80388   15.57152   5.37391  L 
 H-H1-0.110500        -1   -0.81908   16.05599   7.58031  L 
 H-HC--0.017300       -1   -2.60463   15.04429   6.41718  L 
 H-HC--0.017300       -1   -1.53897   15.76597   5.21287  L 
 H-HC--0.042500       -1   -0.49549   13.41075   4.99163  L 
 H-HC--0.042500       -1   -1.84845   12.82785   5.97047  L 
 N-N--0.415700        -1    0.502     13.161    7.919    L 
 C-CT--0.059700       -1    0.546     11.99     8.812    L 
 C-C-0.597300         -1    0.7       12.368    10.299   L 
 O-O--0.567900        -1    0.493     11.523    11.163   L 
[...]
 \O,19.114,16.446,12.795\H,18.427169,16.158238,13.421917\H,18.702346,17
 .177425,12.322246\O,-0.297,-0.179,12.623\H,-0.495294,0.43028,13.351794
 \H,0.487766,0.203776,12.230961\O,7.14,21.104,2.301\H,7.834019,20.46917
 ,2.545553\H,6.942738,20.898171,1.372858\O,-1.414,5.422,0.898\H,-0.7280
 25,5.760815,1.476979\H,-1.050675,4.601944,0.561444\O,-0.473,2.047,14.5
 77\H,-0.803333,2.146024,15.477818\H,-0.767456,2.865226,14.141616\O,18.
 702,18.589,10.494\H,18.59527,18.040359,9.710401\H,19.653914,18.727834,
 10.543707\O,4.475,3.943,21.788\H,4.812102,4.837371,21.981014\H,3.56234
 9,3.994773,22.104455\O,10.614,20.541,6.203\H,11.050253,19.727143,5.890
 143\H,11.320355,20.984018,6.699816\O,10.18,16.948,7.198\H,10.874022,17
 .341059,6.642763\H,10.424909,17.232082,8.094614\O,0.596,3.53,26.522\H,
 -0.296365,3.236274,26.297266\H,1.154332,3.025247,25.920357\O,-5.711,-2
 .841,26.022\H,-4.996105,-3.23712,26.526576\H,-5.249249,-2.332135,25.34
 5093\O,16.119,17.387,2.741\H,15.846193,16.630024,2.208811\H,17.055434,
 17.241568,2.885497\O,14.098,14.728,1.45\H,13.227383,15.107205,1.65401\
 H,14.132436,13.940357,1.997724\O,4.114,2.432,35.805\H,3.744162,2.79137
 5,36.616544\H,4.517159,3.196265,35.386183\O,3.022,1.34,28.597\H,2.8050
 62,2.267292,28.836684\H,3.834723,1.422874,28.098994\O,8.916,19.676,3.5
 64\H,9.379509,20.450017,3.909566\H,8.51549,19.299335,4.364109\O,8.07,1
 8.23,6.062\H,7.698488,17.649382,5.37243\H,8.763924,17.675102,6.477624\
 O,-17.146,-0.336,25.129\H,-17.72987,-0.043354,24.425764\H,-17.673669,-
 0.961161,25.628655\O,1.897,17.352,-0.158\H,2.143008,17.408439,0.771097
 \H,1.356041,18.132535,-0.300628\O,3.091,19.574,2.527\H,3.131592,18.605
 52,2.564132\H,2.376976,19.796379,3.147053\O,6.049,20.417,-0.306\H,6.06
 2919,19.485611,-0.582058\H,5.153502,20.702556,-0.502976\O,8.652,27.293
 ,12.171\H,9.405896,27.880976,12.078036\H,7.925804,27.889085,12.383234\
 O,1.346,7.95,4.17\H,1.690539,8.851974,4.141181\H,2.134603,7.414129,4.0
 51196\O,9.257,29.526,26.753\H,8.866229,28.689591,26.484342\H,10.123065
 ,29.2789,27.085419\O,2.359,7.284,43.133\H,1.44024,7.550366,43.206614\H
 ,2.693017,7.819438,42.404054\O,9.939,14.325,38.16\H,9.110297,14.116412
 ,38.639741\H,10.518362,13.618788,38.440273\O,9.126,20.291,8.398\H,9.63
 6421,20.452833,7.57865\H,9.661824,19.619153,8.847425\O,8.498,22.602,6.
 446\H,8.106709,23.45181,6.192468\H,9.377874,22.625784,6.052363\O,-2.58
 4,11.577,9.449\H,-2.279842,12.458838,9.163368\H,-3.534245,11.681602,9.
 571547\O,-2.956,14.264,0.587\H,-2.891199,14.142647,1.5528\H,-3.03344,1
 5.215271,0.49215\O,0.391,16.209,3.392\H,-0.175585,16.127565,2.619556\H
 ,0.106889,17.0391,3.793563\O,-9.035,26.183,20.757\H,-8.609935,25.95103
 2,19.922602\H,-9.953241,26.389481,20.511847\O,-15.756,7.925,7.36\H,-16
 .181183,7.293729,7.945355\H,-15.056045,8.295895,7.923524\O,-15.496,0.4
 15,19.366\H,-14.742299,-0.186959,19.362205\H,-15.406069,0.886947,20.19
 8744\O,3.978,5.589,11.57\H,3.396828,6.328856,11.839164\H,3.578363,4.82
 6633,12.012123\O,2.362,7.668,16.971\H,2.415272,7.649637,15.985919\H,1.
 481359,8.019269,17.1525\O,1.22,5.358,14.358\H,1.741777,6.184318,14.281
 097\H,1.404441,5.075967,15.276154\O,-6.875,24.137,25.54\H,-6.854004,24
 .217173,24.563692\H,-6.460829,24.950299,25.834678\O,-19.826,16.449,11.
 869\H,-18.976226,16.38028,11.426466\H,-19.929789,17.412585,11.983212\O
 ,-11.745,16.91,27.925\H,-10.894395,16.474392,28.079313\H,-12.233838,16
 .74068,28.732194\O,-1.894,2.509,17.912\H,-2.21667,2.489991,18.835066\H
 ,-0.957824,2.686843,18.0411\O,1.868,4.442,16.964\H,1.446293,4.789007,1
 7.777322\H,2.774472,4.298007,17.244712\O,-1.249,4.494,13.65\H,-0.32994
 9,4.834885,13.651647\H,-1.528204,4.688253,14.554197\O,-4.115,3.131,16.
 679\H,-3.191561,2.958844,16.966195\H,-4.587352,3.040505,17.509071\O,-0
 .165,7.269,24.435\H,-1.022606,7.436199,24.001447\H,-0.416671,6.919939,
 25.308215\O,2.33,7.088,23.225\H,1.455228,7.240493,23.627701\H,2.272692
 ,6.159912,22.933308\O,0.811,12.365,21.33\H,-0.159187,12.448477,21.2296
 53\H,1.05784,13.242253,21.638617\O,-4.856,2.184,20.707\H,-5.506937,2.8
 97901,20.638848\H,-5.107795,1.708786,21.518287\O,-8.383,2.231,18.859\H
 ,-7.470163,1.929926,18.770388\H,-8.677976,1.759171,19.665116\O,6.191,7
 .059,24.735\H,7.044437,7.343211,25.120374\H,5.505125,7.4145,25.340426\
 O,0.878,5.432,19.296\H,0.482745,4.914375,20.0295\H,1.096076,6.290452,1
 9.703448\O,1.671,4.612,22.86\H,1.055035,4.270152,22.169326\H,1.076228,
 4.798763,23.592658\O,1.416,2.02,19.885\H,0.711039,2.552273,20.3053\H,2
 .20944,2.31659,20.330953\O,-0.435,5.94,26.983\H,0.0818,5.121734,26.891
 993\H,0.091429,6.476262,27.599857\O,-8.95,0.7,21.022\H,-8.48811,0.9408
 62,21.862184\H,-8.490569,-0.112233,20.781313\O,-8.1,-1.483,26.965\H,-7
 .58867,-0.78823,27.416681\H,-7.403119,-2.102541,26.685709\O,-6.008,-1.
 772,21.242\H,-5.229292,-1.737597,20.680453\H,-5.928854,-0.936778,21.75
 2487\O,-3.01,-0.464,23.393\H,-3.876349,-0.084045,23.171401\H,-2.414728
 ,0.036209,22.827109\O,14.478,-1.259,13.272\H,15.148295,-0.630591,12.96
 6467\H,13.732379,-1.097265,12.694489\O,18.101,10.7,7.36\H,17.174621,10
 .472435,7.288484\H,18.330306,10.477776,8.283898\O,1.749,1.909,33.832\H
 ,0.951617,1.858034,34.372872\H,2.466947,1.880843,34.480978\O,0.784,5.5
 38,32.284\H,0.544984,5.600347,33.239142\H,0.937982,6.47719,32.034783\O
 ,2.395,3.675,29.063\H,2.766384,4.568867,29.090271\H,1.776339,3.727828,
 28.313422\O,-14.221,1.439,25.074\H,-15.020439,0.889453,25.099443\H,-14
 .470359,2.210629,25.594189\O,-11.917,0.616,21.766\H,-12.317675,1.46048
 7,21.495471\H,-11.003963,0.706481,21.447057\O,-7.969,-3.3,22.559\H,-7.
 348168,-2.791275,22.003921\H,-7.390036,-3.735109,23.184987\O,14.08,11.
 128,4.726\H,13.141137,10.915939,4.843997\H,14.450168,10.282226,4.42416
 8\O,11.017,11.231,1.441\H,11.903904,11.143975,1.082239\H,10.546327,10.
 474974,1.079482\O,-5.917,-0.615,37.763\H,-6.806179,-0.465759,37.386505
 \H,-5.735378,-1.525919,37.513829\O,6.592,3.712,23.62\H,6.319752,4.6167
 59,23.812633\H,5.948184,3.437446,22.94915\O,-14.277,0.171,32.104\H,-13
 .444958,0.317911,32.577746\H,-14.617479,1.057558,31.978137\O,10.216,25
 .319,13.562\H,9.625006,24.564701,13.715608\H,9.612123,26.033632,13.321
 888\O,7.384,30.184,24.138\H,6.447469,30.182995,24.416916\H,7.869557,30
 .245205,24.968788\O,1.945,6.049,36.9\H,1.648756,6.360349,37.792026\H,2
 .64372,6.675059,36.691024\O,2.789,8.902,40.221\H,2.359008,8.219139,39.
 677265\H,2.140816,9.610179,40.242007\O,6.275,15.16,40.803\H,5.447249,1
 5.19973,40.304403\H,5.977619,15.236824,41.71439\O,7.866,13.502,39.653\
 H,7.400783,14.188804,40.179249\H,7.115003,12.97106,39.337759\O,-6.381,
 19.469,38.234\H,-5.944552,20.329704,38.187794\H,-6.250073,19.214905,39
 .157237\O,-12.354,8.967,43.13\H,-13.055922,8.333996,42.845732\H,-11.57
 059,8.576937,42.743448\O,11.956,28.471,22.263\H,11.022985,28.657121,22
 .427694\H,12.129326,28.870169,21.406417\O,13.791,24.888,15.569\H,12.94
 4014,24.794535,15.122343\H,14.092124,23.981397,15.716253\O,-16.092,4.0
 28,30.502\H,-15.870256,4.971921,30.508563\H,-16.340139,3.874634,29.590
 151\O,-13.947,11.496,30.711\H,-13.837719,11.068916,29.851297\H,-13.164
 299,12.071727,30.796687\O,0.767,27.041,29.638\H,1.711862,26.804576,29.
 536097\H,0.614335,26.935022,30.592982\O,-16.859,6.427,26.456\H,-16.532
 887,6.052043,25.608361\H,-17.610194,6.954652,26.173396\O,-15.948,5.667
 ,24.15\H,-15.295594,6.391878,24.060225\H,-15.587396,4.952482,23.608205
 \O,-17.309,15.584,21.902\H,-17.548442,14.958078,22.59756\H,-16.849758,
 16.274972,22.390853\O,-12.571,19.247,24.62\H,-13.044698,18.664984,24.0
 099\H,-12.65247,18.776696,25.458451\O,-3.23,28.514,22.783\H,-3.805584,
 28.791271,23.504915\H,-3.80733,28.588152,22.012799\O,-2.086,26.896,26.
 789\H,-1.74211,27.070415,25.893907\H,-1.3094,26.934285,27.349839\O,-7.
 413,24.574,18.921\H,-7.896798,23.971661,18.330484\H,-6.973318,23.97498
 1,19.547189\O,-12.983,26.355,17.816\H,-12.512843,26.019606,17.03588\H,
 -13.457267,27.131444,17.472299\O,-3.379,26.412,2.602\H,-2.744108,25.87
 8441,3.105532\H,-3.923256,26.80695,3.28662\O,-11.699,26.876,20.098\H,-
 12.156282,26.612967,19.268441\H,-12.384001,27.349545,20.574589\O,-0.52
 ,28.788,3.142\H,-0.970412,28.22775,2.497784\H,0.395424,28.78702,2.8459
 47\O,-5.449,31.091,11.39\H,-5.87601,31.250556,12.26415\H,-5.488841,31.
 953842,10.983237\O,-9.931,32.513,20.693\H,-10.438601,32.266274,19.8984
 45\H,-9.016823,32.251616,20.481365\O,-16.004,11.881,6.606\H,-16.696461
 ,11.70531,7.247137\H,-15.195949,11.788257,7.131811\O,-13.916,13.28,11.
 13\H,-14.239297,12.64907,11.824767\H,-13.472365,13.945163,11.660089\O,
 -13.684,8.971,9.319\H,-13.588297,9.921148,9.121671\H,-12.879535,8.7556
 45,9.801649\O,-12.153,12.385,1.839\H,-12.710977,12.961133,2.405129\H,-
 11.845932,12.969766,1.126034\O,-8.297,10.148,0.625\H,-8.921048,10.1583
 62,1.372487\H,-8.215359,11.077517,0.396148\O,-14.494,9.514,12.334\H,-1
 3.897369,8.843028,12.710355\H,-14.630211,9.191322,11.434155\O,-15.424,
 1.72,17.011\H,-14.739892,1.164826,16.617399\H,-15.604392,1.280702,17.8
 61276\O,-12.38,-0.888,17.829\H,-12.781587,-0.491858,17.04118\H,-11.458
 894,-0.991823,17.586317\O,-6.829,24.429,22.921\H,-6.684135,24.039658,2
 2.050668\H,-7.407842,25.178921,22.715595\O,-16.964,15.443,11.041\H,-17
 .076865,15.551663,11.996767\H,-16.253274,14.79811,10.991003\O,-19.562,
 19.251,12.024\H,-19.056795,19.9465,11.590331\H,-19.356966,19.381129,12
 .972275\O,-3.906,14.36,22.817\H,-4.542486,15.08569,22.749091\H,-4.3281
 05,13.744683,23.440944\O,-9.061,15.519,28.603\H,-8.73424,14.906914,27.
 912261\H,-9.105905,14.958335,29.385763\O,-3.937,10.99,27.783\H,-3.6300
 94,11.890728,27.933383\H,-4.631758,11.112567,27.098985\O,-4.874,8.793,
 35.194\H,-4.383418,8.887766,34.358005\H,-4.65457,7.902083,35.505083\O,
 5.216,8.473,36.683\H,5.615281,8.272074,35.812005\H,4.840083,9.351962,3
 6.544211\O,10.148,17.632,39.818\H,10.209405,16.684421,39.649114\H,10.9
 15422,17.993146,39.338766\O,6.411,20.544,40.179\H,5.576822,20.077503,4
 0.334077\H,6.432037,21.190442,40.899056\O,1.191,7.982,31.496\H,1.94418
 1,8.429257,31.940085\H,0.47823,8.642542,31.554632\O,9.711,15.704,27.24
 1\H,9.574779,15.550933,28.192923\H,10.343853,15.019616,26.986498\O,6.4
 15,8.136,34.324\H,6.052805,8.289892,33.407776\H,7.482745,8.004579,34.2
 39504\O,8.705,7.541,24.949\H,9.4726,8.061169,25.238146\H,9.010344,7.09
 3246,24.142564\O,11.064,13.013,28.82\H,10.222731,13.360441,29.14637\H,
 11.708316,13.395332,29.425855\O,17.718,8.544,29.473\H,16.926416,8.1445
 55,29.854205\H,17.754084,9.397194,29.912728\O,15.092,2.137,28.031\H,15
 .019364,2.960613,27.542555\H,14.245714,1.709706,27.892236\O,19.354,1.7
 79,21.396\H,18.796379,1.439861,20.690332\H,19.00425,1.364025,22.186992
 \O,16.43,0.991,12.369\H,16.167654,1.91627,12.531154\H,17.374916,0.9940
 36,12.553736\O,18.933,9.969,9.667\H,18.762986,9.034499,9.861514\H,19.8
 71953,9.983257,9.454383\O,19.294,0.201,17.131\H,19.570104,0.581182,16.
 276745\H,18.531821,-0.327455,16.884553\O,12.136,1.307,4.479\H,12.36246
 8,1.919441,3.776827\H,12.957877,1.227719,4.992735\O,14.63,1.187,5.684\
 H,15.177819,1.786832,6.20444\H,15.203472,0.893734,4.969757\O,14.681,8.
 399,3.922\H,14.018895,7.710202,4.148045\H,15.487639,8.056278,4.336984\
 O,6.849,3.261,3.865\H,7.541417,3.012696,4.485882\H,7.099756,4.168401,3
 .633944\O,11.395,10.737,4.596\H,11.304056,10.512362,3.660482\H,11.0875
 42,11.647332,4.630949\O,4.201,5.155,6.239\H,4.700007,5.963101,5.971181
 \H,4.61676,4.473825,5.701605\O,5.484,1.55,17.942\H,5.335789,2.319276,1
 7.377724\H,4.936155,0.874513,17.537778\O,3.362,1.041,15.571\H,2.799228
 ,1.599014,16.120453\H,2.890837,0.204192,15.54475\O,6.985,-1.63,14.462\
 H,7.367361,-0.817437,14.81033\H,6.967297,-1.490033,13.512564\O,9.992,-
 0.075,17.178\H,9.422485,0.38605,16.537659\H,9.6331,-0.962527,17.185455
 \O,2.944,2.888,13.044\H,3.199736,2.259688,13.732424\H,2.178299,3.33348
 ,13.427125\O,4.041,3.824,9.033\H,4.029722,4.360168,8.227717\H,4.004481
 ,4.485031,9.742061\O,10.38,1.888,20.493\H,10.14758,2.701497,20.032881\
 H,10.057836,1.198366,19.906347\O,9.27,6.173,22.404\H,8.645089,6.438466
 ,21.708262\H,9.022738,5.256251,22.573474\O,5.628,6.389,22.664\H,6.3133
 06,6.78956,22.118897\H,5.849756,6.713248,23.59261\O,4.44,6.875,18.238\
 H,3.658332,7.196172,17.724755\H,4.020442,6.324119,18.904902\O,4.989,9.
 42,20.307\H,5.239091,9.463828,21.239429\H,4.738145,8.492884,20.192387\
 O,10.328,14.326,25.127\H,10.103869,13.910435,24.280154\H,9.538469,14.8
 23828,25.373071\O,8.548,23.113,13.683\H,7.667147,23.192039,14.095592\H
 ,8.572958,22.190596,13.41021\O,9.709,26.461,16.31\H,8.837493,26.212914
 ,16.681337\H,10.330176,25.952544,16.839696\O,5.313,30.09,11.057\H,5.34
 3505,30.07751,12.037105\H,5.80906,30.880814,10.834939\O,3.412,30.027,1
 8.601\H,3.700238,30.210768,17.68976\H,2.475447,29.851177,18.483266\O,4
 .877,30.092,24.773\H,4.932738,29.158854,25.096129\H,4.392727,30.513631
 ,25.490768\O,1.173,30.909,22.181\H,0.58157,30.337432,22.686056\H,0.570
 704,31.40215,21.613516\O,-5.868,15.133,41.416\H,-5.129184,15.663026,41
 .742761\H,-5.922793,14.404496,42.038867\O,0.184,5.443,34.79\H,-0.49027
 3,4.893695,35.208745\H,0.745925,5.709361,35.546271\O,-4.995,6.226,36.7
 45\H,-4.517329,5.487452,36.342406\H,-4.657719,6.222618,37.659487\O,-7.
 166,12.018,40.903\H,-6.209877,11.838104,40.882145\H,-7.495296,11.42166
 4,41.576144\O,-4.391,9.202,42.857\H,-3.909563,8.55947,42.302743\H,-4.4
 27662,9.984943,42.301569\O,1.382,6.824,39.116\H,0.401348,6.873933,39.2
 19792\H,1.616955,6.238783,39.844622\O,-4.483,6.004,39.655\H,-3.68925,6
 .49497,39.971019\H,-5.060433,6.083703,40.417557\O,0.671,15.628,42.75\H
 ,1.052597,15.469975,41.873334\H,-0.194304,15.997952,42.559191\O,5.279,
 12.521,38.877\H,4.46199,13.056875,38.856612\H,4.965298,11.67634,39.217
 123\O,-0.79,14.685,35.869\H,-0.7908,15.580711,36.26894\H,-0.158056,14.
 742079,35.141316\O,-7.749,18.842,36.535\H,-7.22333,19.211477,35.816176
 \H,-7.199202,19.085063,37.334325\O,8.728,27.91,22.96\H,8.463475,27.678
 752,22.047122\H,8.165974,28.66826,23.182502\O,13.358,27.397,18.469\H,1
 2.718092,26.686509,18.600208\H,13.635095,27.270947,17.558135\O,7.705,2
 9.61,19.072\H,8.170741,29.78627,18.247734\H,6.798148,29.865689,18.8709
 24\O,11.552,25.492,22.866\H,12.216501,25.021265,22.331237\H,11.76534,2
 6.424416,22.691156\O,15.351,22.576,16.211\H,15.774055,21.804854,16.620
 878\H,16.03255,22.904364,15.617452\O,18.557,24.419,23.997\H,18.342519,
 24.473308,23.057743\H,18.14961,25.216304,24.357073\O,14.449,20.302,20.
 136\H,14.288325,19.949679,21.019215\H,13.778962,19.845537,19.613113\O,
 16.583,26.87,24.459\H,15.884776,26.267137,24.772411\H,16.181242,27.291
 124,23.697498\O,11.506,25.738,25.525\H,10.855147,26.440297,25.524604\H
 ,11.524345,25.469998,24.58392\O,5.605,24.693,30.065\H,6.42235,24.70434
 4,29.536322\H,5.422637,23.754163,30.204561\O,3.076,26.51,29.125\H,2.88
 1431,26.767406,28.209589\H,3.424506,25.613348,29.030026\O,5.865,22.438
 ,38.574\H,6.16234,21.661102,39.075198\H,6.54423,22.530273,37.870224\O,
 0.404,26.938,32.23\H,-0.163811,26.146077,32.241186\H,-0.246829,27.6363
 57,32.348789\O,-12.394,27.093,34.562\H,-12.917059,26.288267,34.651446\
 H,-12.454777,27.243121,33.601255\O,-14.873,23.824,30.327\H,-14.665403,
 24.729683,30.085553\H,-14.697418,23.821173,31.279696\O,-9.285,15.21,38
 .227\H,-9.150768,15.010644,37.288152\H,-9.379782,16.162785,38.252356\O
 ,-7.15,13.012,36.915\H,-7.889502,13.460733,36.470535\H,-7.507911,12.13
 9775,37.135965\O,-13.375,18.392,34.645\H,-12.963812,19.25487,34.740831
 \H,-13.816696,18.441792,33.796708\O,-11.722,13.001,31.375\H,-10.788395
 ,13.222509,31.240597\H,-11.892482,13.280276,32.283243\O,-11.02,21.392,
 24.954\H,-11.596754,20.617382,24.783876\H,-11.472959,22.104119,24.4980
 35\O,-11.16,21.683,30.13\H,-10.947116,21.755446,31.070875\H,-11.992374
 ,22.163917,30.065909\O,-1.257,27.375,24.217\H,-1.977799,27.712299,23.6
 50891\H,-0.663126,26.933467,23.594552\O,1.024,29.374,15.452\H,1.1053,2
 8.797841,14.681613\H,1.909822,29.772038,15.51824\O,-1.435,24.879,4.317
 \H,-0.510336,25.176285,4.385046\H,-1.343448,23.976657,3.947427\O,6.187
 ,24.948,6.652\H,5.434311,25.582901,6.773147\H,6.424192,25.203228,5.749
 173\O,4.124,22.039,3.087\H,3.791244,21.206487,2.709351\H,4.999391,22.1
 30542,2.693655\O,-1.484,28.332,5.3\H,-0.882707,28.907616,5.805694\H,-1
 .175052,28.502476,4.37353\O,-7.146,27.687,7.349\H,-6.684496,26.86064,7
 .586966\H,-6.601191,28.006285,6.618685\O,-3.404,20.363,0.738\H,-3.0234
 95,20.409267,1.643692\H,-4.1079,21.009464,0.775763\O,1.048,20.304,4.64
 2\H,1.315772,20.999185,5.285525\H,0.438547,20.809139,4.070907\O,-6.691
 ,22.343,1.98\H,-7.395523,22.895062,2.35092\H,-5.9052,22.873513,2.12737
 5\O,-13.442,25.173,7.458\H,-13.068634,25.379791,8.324483\H,-14.385436,
 25.315748,7.601158\O,-13.26,16.186,3.095\H,-12.554807,16.581495,3.6463
 82\H,-12.925814,16.317149,2.201178\O,-13.698,23.198,5.11\H,-14.614404,
 23.146389,5.400574\H,-13.34247,23.904056,5.670328\O,-13.532,11.712,8.6
 3\H,-12.758735,12.11186,8.20014\H,-13.640351,12.242824,9.442992\O,-10.
 758,13.736,-0.437\H,-9.949122,14.197231,-0.119629\H,-10.521192,13.5135
 21,-1.337594\O,-6.104,13.14,-0.653\H,-6.836341,13.742871,-0.433833\H,-
 5.325245,13.66326,-0.439966\O,-10.045,10.6,2.79\H,-9.667773,11.025202,
 3.577118\H,-10.737826,11.217656,2.497361\O,-13.565,13.701,3.504\H,-14.
 080841,13.633676,4.309275\H,-13.497512,14.674254,3.361583\O,-5.051,9.3
 13,-1.324\H,-5.01396,9.645184,-2.225367\H,-5.994412,9.33635,-1.117351\
 O,-4.402,4.649,13.124\H,-3.518475,4.507376,12.755101\H,-4.388898,4.104
 317,13.92305\O,-2.631,4.98,9.209\H,-3.477312,5.063078,9.673533\H,-2.88
 6083,4.751144,8.296026\O,-2.994,4.631,6.704\H,-2.543271,3.823349,6.432
 64\H,-3.875735,4.53875,6.318142\O,-4.687,7.159,13.936\H,-3.806267,7.36
 4164,14.279187\H,-4.605871,6.229131,13.635987\O,-5.609,10.874,10.477\H
 ,-5.70204,10.139463,11.110422\H,-6.100391,10.577231,9.703827\O,-12.304
 ,7.122,13.105\H,-11.353912,6.924209,13.060717\H,-12.559817,6.890817,14
 .015161\O,-14.033,4.06,13.827\H,-13.551387,4.46785,13.093853\H,-13.681
 668,4.494005,14.616582\O,-7.478,3.15,12.146\H,-6.669511,3.627717,11.92
 3202\H,-7.207486,2.594197,12.881303\O,-13.331,0.67,15.509\H,-12.399851
 ,0.858824,15.316945\H,-13.779482,1.445684,15.141131\O,-14.936,2.928,22
 .858\H,-14.269206,2.970576,22.154384\H,-14.528956,2.33708,23.509126\O,
 -13.662,6.814,15.622\H,-13.487496,6.713888,16.574378\H,-14.433517,7.41
 0537,15.606933\O,-15.713,8.417,15.484\H,-15.791152,9.048595,14.759417\
 H,-16.511311,7.883815,15.406041\O,-14.614,11.753,12.986\H,-14.853015,1
 1.758183,13.929043\H,-14.584481,10.781905,12.759732\O,-15.543,12.722,2
 0.695\H,-16.013215,12.942931,19.877599\H,-14.695723,12.374477,20.39940
 9\O,-19.175,12.223,17.117\H,-18.423684,12.621395,17.57266\H,-19.849397
 ,12.17419,17.79592\O,-18.775,19.307,14.602\H,-17.863373,18.982532,14.4
 66744\H,-18.857321,19.366103,15.555398\O,-17.191,14.812,13.979\H,-17.4
 66245,13.914685,14.198302\H,-18.000208,15.327705,14.088124\O,-13.405,2
 1.44,11.371\H,-13.768349,21.235037,12.25019\H,-12.923912,22.254854,11.
 526591\O,-13.816,29.022,17.08\H,-13.651529,29.097203,16.130229\H,-13.1
 67775,29.616789,17.466691\O,-17.741,29.45,17.347\H,-16.816237,29.22723
 7,17.474883\H,-17.869215,29.270359,16.401511\O,-17.159,30.744,12.917\H
 ,-17.240261,30.064285,13.637298\H,-17.313297,30.177686,12.160127\O,1.3
 13,7.659,28.828\H,1.29235,7.830006,29.788131\H,1.161316,8.527467,28.43
 0955\O,-2.106,12.839,21.527\H,-2.755113,12.313496,21.03296\H,-2.687017
 ,13.448819,22.032132\O,3.835,7.835,25.649\H,3.440536,7.465631,24.84126
 6\H,3.294093,8.630815,25.793072\\Version=ES64L-G16RevB.01\HF=-0.397577
 2\RMSD=0.000e+00\RMSF=5.361e-04\Dipole=30.3745717,-50.1513812,-100.267
 4838\PG=C01 [X(C1052H2125F1N274O563S5)]\\@
 Punch of MOs requested, but none found.


 A warm smile is the universal language of kindness.
                             -- William Arthur Ward
 Job cpu time:       0 days  0 hours  5 minutes 21.6 seconds.
 Elapsed time:       0 days  0 hours  0 minutes 33.5 seconds.
 File lengths (MBytes):  RWF=    624 Int=      0 D2E=      0 Chk=    607 Scr=      1
 Normal termination of Gaussian 16 at Tue Jan  2 18:17:20 2024.
