      -----------------------------------------------------------      
     |                   =====================                   |     
     |                           x T B                           |     
     |                   =====================                   |     
     |                         S. Grimme                         |     
     |          Mulliken Center for Theoretical Chemistry        |     
     |                    University of Bonn                     |     
      -----------------------------------------------------------      

   * xtb version 6.6.0 (2ccbbd7) compiled by 'conda@6fe65c42fc39' on 2023-02-10

   xtb is free software: you can redistribute it and/or modify it under
   the terms of the GNU Lesser General Public License as published by
   the Free Software Foundation, either version 3 of the License, or
   (at your option) any later version.
   
   xtb is distributed in the hope that it will be useful,
   but WITHOUT ANY WARRANTY; without even the implied warranty of
   MERCHANTABILITY or FITNESS FOR A PARTICULAR PURPOSE.  See the
   GNU Lesser General Public License for more details.
   
   Cite this work as:
   * C. Bannwarth, E. Caldeweyher, S. Ehlert, A. Hansen, P. Pracht,
     J. Seibert, S. Spicher, S. Grimme, WIREs Comput. Mol. Sci., 2020, 11,
     e01493. DOI: 10.1002/wcms.1493
   
   for GFN2-xTB:
   * C. Bannwarth, S. Ehlert and S. Grimme., J. Chem. Theory Comput., 2019,
     15, 1652-1671. DOI: 10.1021/acs.jctc.8b01176
   for GFN1-xTB:
   * S. Grimme, C. Bannwarth, P. Shushkov, J. Chem. Theory Comput., 2017,
     13, 1989-2009. DOI: 10.1021/acs.jctc.7b00118
   for GFN0-xTB:
   * P. Pracht, E. Caldeweyher, S. Ehlert, S. Grimme, ChemRxiv, 2019, preprint.
     DOI: 10.26434/chemrxiv.8326202.v1
   for GFN-FF:
   * S. Spicher and S. Grimme, Angew. Chem. Int. Ed., 2020, 59, 15665-15673.
     DOI: 10.1002/anie.202004239
   
   for ALPB and GBSA implicit solvation:
   * S. Ehlert, M. Stahn, S. Spicher, S. Grimme, J. Chem. Theory Comput.,
     2021, 17, 4250-4261. DOI: 10.1021/acs.jctc.1c00471
   
   for DFT-D4:
   * E. Caldeweyher, C. Bannwarth and S. Grimme, J. Chem. Phys., 2017,
     147, 034112. DOI: 10.1063/1.4993215
   * E. Caldeweyher, S. Ehlert, A. Hansen, H. Neugebauer, S. Spicher,
     C. Bannwarth and S. Grimme, J. Chem. Phys., 2019, 150, 154122.
     DOI: 10.1063/1.5090222
   * E. Caldeweyher, J.-M. Mewes, S. Ehlert and S. Grimme, Phys. Chem. Chem. Phys.
     2020, 22, 8499-8512. DOI: 10.1039/D0CP00502A
   
   for sTDA-xTB:
   * S. Grimme and C. Bannwarth, J. Chem. Phys., 2016, 145, 054103.
     DOI: 10.1063/1.4959605
   
   in the mass-spec context:
   * V. Asgeirsson, C. Bauer and S. Grimme, Chem. Sci., 2017, 8, 4879.
     DOI: 10.1039/c7sc00601b
   * J. Koopman and S. Grimme, ACS Omega 2019, 4, 12, 15120-15133.
     DOI: 10.1021/acsomega.9b02011
   
   for metadynamics refer to:
   * S. Grimme, J. Chem. Theory Comput., 2019, 155, 2847-2862
     DOI: 10.1021/acs.jctc.9b00143
   
   for SPH calculations refer to:
   * S. Spicher and S. Grimme, J. Chem. Theory Comput., 2021, 17, 1701-1714
     DOI: 10.1021/acs.jctc.0c01306
   
   with help from (in alphabetical order)
   P. Atkinson, C. Bannwarth, F. Bohle, G. Brandenburg, E. Caldeweyher
   M. Checinski, S. Dohm, S. Ehlert, S. Ehrlich, I. Gerasimov, C. Hölzer
   A. Katbashev, J. Koopman, C. Lavigne, S. Lehtola, F. März, M. Müller,
   F. Musil, H. Neugebauer, J. Pisarek, C. Plett, P. Pracht, F. Pultar,
   J. Seibert, P. Shushkov, S. Spicher, M. Stahn, M. Steiner, T. Strunk,
   J. Stückrath, T. Rose, and J. Unsleber
   
 * started run on 2024/01/03 at 00:43:48.582     

           -------------------------------------------------
          |                Calculation Setup                |
           -------------------------------------------------

          program call               : xtb gau_xtb.xyz --chrg -1 --uhf 0 --grad
          hostname                   : node41
          coordinate file            : gau_xtb.xyz
          omp threads                :                    12

   ID    Z sym.   atoms
    1    1 H      1, 10-15, 22-28, 34-40, 49-54, 63-73, 78-80, 89-99,
                  108-120, 129-141, 149-159, 171-179, 192-202, 210-220,
                  235-246, 254-261, 284-297, 299, 300, 302, 303, 305, 306,
                  308, 309, 311, 312, 314, 315, 317, 318, 320, 321, 323, 324,
                  326, 327, 329, 330, 332, 333
    2    7 N      2, 9, 16, 29, 41, 55, 74, 81, 100, 121, 142, 160, 180, 203,
                  221, 229, 247, 263, 266, 269, 271, 273
    3    6 C      3, 4, 6, 7, 17, 18, 20, 30, 31, 33, 42, 43, 45, 46, 56, 57,
                  59-62, 75, 76, 82, 83, 85, 86, 88, 101, 102, 104-107, 122,
                  123, 125-128, 143, 144, 146-148, 161, 162, 164-170, 181,
                  182, 184-190, 204, 205, 207-209, 222, 223, 225-228,
                  230-234, 248, 249, 251, 253, 262, 265, 268, 270, 272,
                  274-282
    4    8 O      5, 8, 19, 21, 32, 44, 47, 48, 58, 77, 84, 103, 124, 145,
                  163, 183, 191, 206, 224, 250, 252, 264, 267, 298, 301, 304,
                  307, 310, 313, 316, 319, 322, 325, 328, 331
    5   16 S      87
    6    9 F      283

molecular fragmentation (1/2 indicates fragments):
111111111111111111111111111222222222222222222222222222222222222222222222
222222222222222222222222222222222222222222222222222222222222222222222222
222222222222222222222222222222222222222222222222222222222222222222222222
222222222222222222222222222222222222222222222222222222222222222222222222
222222222222222222222222222222222222222222222
# atoms in fragment 1/2:    27   306
 fragment masses (1/2) :      203.20     2048.44
CMA distance (Bohr)    :  14.172
constraining FC (au)   :  0.0500

           -------------------------------------------------
          |                 G F N 2 - x T B                 |
           -------------------------------------------------

        Reference                      10.1021/acs.jctc.8b01176
      * Hamiltonian:
        H0-scaling (s, p, d)           1.850000    2.230000    2.230000
        zeta-weighting                 0.500000
      * Dispersion:
        s8                             2.700000
        a1                             0.520000
        a2                             5.000000
        s9                             5.000000
      * Repulsion:
        kExp                           1.500000    1.000000
        rExp                           1.000000
      * Coulomb:
        alpha                          2.000000
        third order                    shell-resolved
        anisotropic                    true
        a3                             3.000000
        a5                             4.000000
        cn-shift                       1.200000
        cn-exp                         4.000000
        max-rad                        5.000000


          ...................................................
          :                      SETUP                      :
          :.................................................:
          :  # basis functions                 804          :
          :  # atomic orbitals                 803          :
          :  # shells                          489          :
          :  # electrons                       896          :
          :  max. iterations                   250          :
          :  Hamiltonian                  GFN2-xTB          :
          :  restarted?                      false          :
          :  GBSA solvation                  false          :
          :  PC potential                    false          :
          :  electronic temp.          300.0000000     K    :
          :  accuracy                    1.0000000          :
          :  -> integral cutoff          0.2500000E+02      :
          :  -> integral neglect         0.1000000E-07      :
          :  -> SCF convergence          0.1000000E-05 Eh   :
          :  -> wf. convergence          0.1000000E-03 e    :
          :  Broyden damping             0.4000000          :
          ...................................................

 iter      E             dE          RMSdq      gap      omega  full diag
   1   -515.6948514 -0.515695E+03  0.429E+00    1.67       0.0  T
   2   -515.2121696  0.482682E+00  0.268E+00    0.21       1.0  T
   3   -496.0766295  0.191355E+02  0.417E+00    0.12       1.0  T
   4   -511.9314091 -0.158548E+02  0.267E+00    0.01       1.0  T
   5   -516.3619255 -0.443052E+01  0.163E+00    0.67       1.0  T
   6   -516.6549905 -0.293065E+00  0.912E-01    0.11       1.0  T
   7   -516.7242289 -0.692385E-01  0.702E-01    0.52       1.0  T
   8   -516.7548226 -0.305936E-01  0.356E-01    0.08       1.0  T
   9   -516.7727302 -0.179077E-01  0.407E-01    0.59       1.0  T
  10   -516.7865267 -0.137965E-01  0.249E-01    0.43       1.0  T
  11   -516.7911817 -0.465494E-02  0.164E-01    0.32       1.0  T
  12   -516.7711559  0.200258E-01  0.221E-01    0.09       1.0  T
  13   -516.7948883 -0.237324E-01  0.975E-02    0.20       1.0  T
  14   -516.7426837  0.522046E-01  0.303E-01    0.07       1.0  T
  15   -516.7956775 -0.529938E-01  0.724E-02    0.17       1.0  T
  16   -516.7634890  0.321884E-01  0.236E-01    0.08       1.0  T
  17   -516.7805401 -0.170511E-01  0.171E-01    0.10       1.0  T
  18   -516.7882509 -0.771080E-02  0.137E-01    0.10       1.0  T
  19   -516.7976126 -0.936161E-02  0.356E-02    0.20       1.0  T
  20   -516.7957039  0.190869E-02  0.708E-02    0.12       1.0  T
  21   -516.7983071 -0.260327E-02  0.249E-02    0.14       1.0  T
  22   -516.7981666  0.140556E-03  0.274E-02    0.14       1.0  T
  23   -516.7984468 -0.280255E-03  0.164E-02    0.15       1.0  T
  24   -516.7985813 -0.134503E-03  0.791E-03    0.15       1.0  T
  25   -516.7985694  0.119180E-04  0.877E-03    0.15       1.0  T
  26   -516.7986107 -0.412726E-04  0.399E-03    0.16       1.4  T
  27   -516.7986126 -0.188718E-05  0.356E-03    0.16       1.5  T
  28   -516.7986162 -0.361147E-05  0.259E-03    0.16       2.1  T
  29   -516.7986180 -0.177242E-05  0.189E-03    0.16       2.9  T
  30   -516.7986189 -0.890913E-06  0.143E-03    0.16       3.8  T
  31   -516.7986195 -0.693855E-06  0.925E-04    0.16       5.9  T
  32   -516.7986199 -0.342293E-06  0.510E-04    0.16      10.7  T

   *** convergence criteria satisfied after 32 iterations ***

         #    Occupation            Energy/Eh            Energy/eV
      -------------------------------------------------------------
         1        2.0000           -0.7394838             -20.1224
       ...           ...                  ...                  ...
       442        2.0000           -0.2871514              -7.8138
       443        2.0000           -0.2870065              -7.8098
       444        2.0000           -0.2826282              -7.6907
       445        2.0000           -0.2685072              -7.3065
       446        2.0000           -0.2678684              -7.2891
       447        1.9999           -0.2568230              -6.9885
       448        1.8890           -0.2496920              -6.7945 (HOMO)
       449        0.0732           -0.2438923              -6.6366 (LUMO)
       450        0.0138           -0.2422806              -6.5928
       451        0.0119           -0.2421372              -6.5889
       452        0.0113           -0.2420873              -6.5875
       453        0.0004           -0.2389151              -6.5012
       ...           ...                  ...                  ...
       803                          0.7472496              20.3337
      -------------------------------------------------------------
                  HL-Gap            0.0057998 Eh            0.1578 eV
             Fermi-level           -0.2469991 Eh           -6.7212 eV

 SCC (total)                   0 d,  0 h,  0 min, 15.549 sec
 SCC setup                      ...        0 min,  0.010 sec (  0.066%)
 Dispersion                     ...        0 min,  0.057 sec (  0.367%)
 classical contributions        ...        0 min,  0.002 sec (  0.010%)
 integral evaluation            ...        0 min,  0.170 sec (  1.096%)
 iterations                     ...        0 min, 14.351 sec ( 92.295%)
 molecular gradient             ...        0 min,  0.915 sec (  5.887%)
 printout                       ...        0 min,  0.043 sec (  0.277%)

         :::::::::::::::::::::::::::::::::::::::::::::::::::::
         ::                     SUMMARY                     ::
         :::::::::::::::::::::::::::::::::::::::::::::::::::::
         :: total energy            -510.711688691436 Eh    ::
         :: gradient norm              0.571137291077 Eh/a0 ::
         :: HOMO-LUMO gap              0.157820273703 eV    ::
         ::.................................................::
         :: SCC energy              -516.798619889133 Eh    ::
         :: -> isotropic ES            1.273564874235 Eh    ::
         :: -> anisotropic ES          0.006564923777 Eh    ::
         :: -> anisotropic XC          0.165002037535 Eh    ::
         :: -> dispersion             -0.409581009821 Eh    ::
         :: repulsion energy           6.047171985852 Eh    ::
         :: add. restraining           0.000000000000 Eh    ::
         :: total charge              -0.999999999999 e     ::
         :::::::::::::::::::::::::::::::::::::::::::::::::::::

           -------------------------------------------------
          |                Property Printout                |
           -------------------------------------------------

    * Orbital Energies and Occupations

         #    Occupation            Energy/Eh            Energy/eV
      -------------------------------------------------------------
         1        2.0000           -0.7394838             -20.1224
       ...           ...                  ...                  ...
       436        2.0000           -0.3022010              -8.2233
       437        2.0000           -0.2960665              -8.0564
       438        2.0000           -0.2957838              -8.0487
       439        2.0000           -0.2939579              -7.9990
       440        2.0000           -0.2922493              -7.9525
       441        2.0000           -0.2919574              -7.9446
       442        2.0000           -0.2871514              -7.8138
       443        2.0000           -0.2870065              -7.8098
       444        2.0000           -0.2826282              -7.6907
       445        2.0000           -0.2685072              -7.3065
       446        2.0000           -0.2678684              -7.2891
       447        1.9999           -0.2568230              -6.9885
       448        1.8890           -0.2496920              -6.7945 (HOMO)
       449        0.0732           -0.2438923              -6.6366 (LUMO)
       450        0.0138           -0.2422806              -6.5928
       451        0.0119           -0.2421372              -6.5889
       452        0.0113           -0.2420873              -6.5875
       453        0.0004           -0.2389151              -6.5012
       454        0.0004           -0.2388045              -6.4982
       455        0.0000           -0.2352105              -6.4004
       456                         -0.2299831              -6.2582
       457                         -0.2269456              -6.1755
       458                         -0.2074262              -5.6444
       459                         -0.1958826              -5.3302
       ...                                ...                  ...
       803                          0.7472496              20.3337
      -------------------------------------------------------------
                  HL-Gap            0.0057998 Eh            0.1578 eV
             Fermi-level           -0.2469991 Eh           -6.7212 eV

     #   Z          covCN         q      C6AA      α(0)
     1   1 H        0.862     0.147     1.420     1.867
     2   7 N        2.631    -0.349    28.985     7.996
     3   6 C        3.785     0.029    20.101     6.386
     4   6 C        2.755     0.252    22.762     7.813
     5   8 O        0.858    -0.458    22.876     6.413
     6   6 C        3.804    -0.094    22.288     6.721
     7   6 C        2.740     0.273    22.391     7.748
     8   8 O        0.858    -0.461    22.944     6.422
     9   7 N        2.635    -0.294    27.593     7.801
    10   1 H        0.860     0.138     1.484     1.908
    11   1 H        0.924     0.079     1.989     2.206
    12   1 H        0.925     0.055     2.261     2.352
    13   1 H        0.926     0.063     2.161     2.299
    14   1 H        0.860     0.224     0.991     1.559
    15   1 H        0.860     0.221     1.004     1.569
    16   7 N        2.686    -0.171    24.690     7.380
    17   6 C        3.788     0.012    20.386     6.431
    18   6 C        2.762     0.192    23.902     8.006
    19   8 O        0.856    -0.304    19.859     5.975
    20   6 C        3.678     0.078    19.494     6.325
    21   8 O        1.651    -0.491    22.707     6.433
    22   1 H        0.860     0.185     1.185     1.705
    23   1 H        0.924     0.109     1.707     2.043
    24   1 H        0.925     0.039     2.464     2.455
    25   1 H        0.925     0.037     2.490     2.468
    26   1 H        0.802     0.344     0.603     1.220
    27   1 H        0.928     0.046     2.376     2.410
    28   1 H        0.862     0.137     1.490     1.912
    29   7 N        2.632    -0.349    28.992     7.997
    30   6 C        3.779     0.037    19.975     6.367
    31   6 C        2.762     0.192    23.888     8.004
    32   8 O        0.856    -0.358    20.862     6.124
    33   6 C        3.752    -0.110    22.664     6.789
    34   1 H        0.860     0.163     1.313     1.795
    35   1 H        0.924     0.057     2.236     2.338
    36   1 H        0.925     0.058     2.226     2.333
    37   1 H        0.925     0.059     2.214     2.327
    38   1 H        0.925     0.074     2.043     2.235
    39   1 H        0.927     0.046     2.372     2.408
    40   1 H        0.862     0.137     1.494     1.914
    41   7 N        2.634    -0.357    29.194     8.025
    42   6 C        3.782     0.051    19.742     6.329
    43   6 C        2.760     0.200    23.738     7.979
    44   8 O        0.856    -0.335    20.425     6.059
    45   6 C        3.803    -0.095    22.318     6.726
    46   6 C        2.688     0.372    20.691     7.444
    47   8 O        0.858    -0.551    24.934     6.695
    48   8 O        0.858    -0.596    26.029     6.840
    49   1 H        0.860     0.192     1.146     1.677
    50   1 H        0.925     0.026     2.647     2.544
    51   1 H        0.924     0.029     2.597     2.520
    52   1 H        0.925     0.036     2.503     2.474
    53   1 H        0.928     0.036     2.508     2.476
    54   1 H        0.862     0.158     1.346     1.817
    55   7 N        2.633    -0.334    28.604     7.943
    56   6 C        3.791     0.025    20.161     6.394
    57   6 C        2.761     0.270    22.440     7.758
    58   8 O        0.860    -0.470    23.124     6.447
    59   6 C        3.849    -0.021    20.922     6.506
    60   6 C        3.795    -0.065    21.745     6.640
    61   6 C        3.744    -0.122    22.917     6.829
    62   6 C        3.743    -0.107    22.620     6.785
    63   1 H        0.860     0.178     1.226     1.735
    64   1 H        0.925     0.038     2.471     2.458
    65   1 H        0.924     0.047     2.361     2.403
    66   1 H        0.925     0.052     2.299     2.371
    67   1 H        0.925     0.039     2.459     2.452
    68   1 H        0.925     0.034     2.527     2.486
    69   1 H        0.925     0.048     2.343     2.394
    70   1 H        0.925     0.067     2.120     2.277
    71   1 H        0.925     0.033     2.539     2.492
    72   1 H        0.925     0.023     2.688     2.564
    73   1 H        0.925     0.033     2.547     2.496
    74   7 N        2.686    -0.147    24.185     7.304
    75   6 C        3.751    -0.021    21.011     6.537
    76   6 C        2.756     0.271    22.422     7.754
    77   8 O        0.858    -0.437    22.436     6.351
    78   1 H        0.860     0.232     0.956     1.532
    79   1 H        0.925     0.076     2.023     2.224
    80   1 H        0.925     0.076     2.016     2.220
    81   7 N        2.689    -0.165    24.579     7.363
    82   6 C        3.795     0.025    20.155     6.393
    83   6 C        2.763     0.187    23.989     8.021
    84   8 O        0.856    -0.336    20.446     6.062
    85   6 C        3.825    -0.061    21.649     6.621
    86   6 C        3.797    -0.013    20.812     6.496
    87  16 S        1.950    -0.181   148.703    20.524
    88   6 C        3.732    -0.067    21.875     6.676
    89   1 H        0.860     0.183     1.199     1.715
    90   1 H        0.925     0.093     1.848     2.126
    91   1 H        0.925     0.056     2.250     2.346
    92   1 H        0.925     0.045     2.387     2.416
    93   1 H        0.925     0.065     2.140     2.288
    94   1 H        0.925     0.060     2.195     2.317
    95   1 H        0.925     0.063     2.169     2.303
    96   1 H        0.925     0.046     2.375     2.410
    97   1 H        0.925     0.045     2.381     2.413
    98   1 H        0.928     0.053     2.281     2.361
    99   1 H        0.862     0.150     1.399     1.852
   100   7 N        2.632    -0.343    28.838     7.976
   101   6 C        3.780     0.029    20.107     6.388
   102   6 C        2.761     0.189    23.952     8.015
   103   8 O        0.856    -0.344    20.587     6.083
   104   6 C        3.808    -0.061    21.662     6.625
   105   6 C        3.849    -0.010    20.717     6.474
   106   6 C        3.752    -0.111    22.687     6.793
   107   6 C        3.757    -0.116    22.774     6.804
   108   1 H        0.860     0.144     1.444     1.883
   109   1 H        0.925     0.062     2.181     2.310
   110   1 H        0.925     0.040     2.455     2.450
   111   1 H        0.924     0.037     2.495     2.470
   112   1 H        0.925     0.032     2.557     2.501
   113   1 H        0.925     0.038     2.482     2.464
   114   1 H        0.925     0.047     2.361     2.403
   115   1 H        0.925     0.034     2.530     2.487
   116   1 H        0.925     0.050     2.320     2.382
   117   1 H        0.925     0.042     2.422     2.434
   118   1 H        0.925     0.039     2.462     2.454
   119   1 H        0.928     0.041     2.430     2.437
   120   1 H        0.862     0.149     1.408     1.859
   121   7 N        2.633    -0.338    28.712     7.958
   122   6 C        3.784     0.025    20.170     6.397
   123   6 C        2.764     0.194    23.858     7.999
   124   8 O        0.856    -0.357    20.838     6.120
   125   6 C        3.822    -0.063    21.685     6.627
   126   6 C        3.855    -0.006    20.657     6.464
   127   6 C        3.776    -0.125    22.933     6.823
   128   6 C        3.758    -0.131    23.064     6.847
   129   1 H        0.860     0.143     1.447     1.884
   130   1 H        0.924     0.084     1.939     2.178
   131   1 H        0.924     0.039     2.457     2.451
   132   1 H        0.924     0.045     2.389     2.417
   133   1 H        0.925     0.024     2.668     2.554
   134   1 H        0.925     0.042     2.417     2.431
   135   1 H        0.926     0.069     2.100     2.266
   136   1 H        0.925     0.022     2.708     2.574
   137   1 H        0.925     0.040     2.450     2.448
   138   1 H        0.924     0.062     2.171     2.304
   139   1 H        0.925     0.067     2.115     2.274
   140   1 H        0.928     0.050     2.318     2.381
   141   1 H        0.862     0.151     1.394     1.849
   142   7 N        2.629    -0.340    28.745     7.963
   143   6 C        3.776     0.022    20.230     6.408
   144   6 C        2.760     0.175    24.222     8.060
   145   8 O        0.855    -0.390    21.480     6.214
   146   6 C        3.847    -0.017    20.848     6.495
   147   6 C        3.764    -0.109    22.624     6.780
   148   6 C        3.758    -0.107    22.595     6.777
   149   1 H        0.860     0.142     1.457     1.891
   150   1 H        0.925     0.075     2.033     2.230
   151   1 H        0.926     0.052     2.295     2.369
   152   1 H        0.925     0.038     2.471     2.458
   153   1 H        0.925     0.033     2.538     2.491
   154   1 H        0.924     0.043     2.407     2.426
   155   1 H        0.925     0.035     2.515     2.480
   156   1 H        0.925     0.036     2.499     2.472
   157   1 H        0.925     0.038     2.473     2.459
   158   1 H        0.928     0.053     2.285     2.364
   159   1 H        0.862     0.147     1.423     1.869
   160   7 N        2.632    -0.382    29.874     8.118
   161   6 C        3.783     0.031    20.071     6.382
   162   6 C        2.757     0.260    22.627     7.789
   163   8 O        0.859    -0.468    23.086     6.442
   164   6 C        3.808    -0.073    21.895     6.661
   165   6 C        2.953     0.015    27.679     8.629
   166   6 C        2.912    -0.044    29.081     8.843
   167   6 C        2.913    -0.039    28.970     8.826
   168   6 C        2.901    -0.036    28.891     8.813
   169   6 C        2.904    -0.033    28.813     8.801
   170   6 C        2.904    -0.032    28.801     8.800
   171   1 H        0.860     0.179     1.220     1.731
   172   1 H        0.924     0.044     2.391     2.418
   173   1 H        0.925     0.061     2.187     2.313
   174   1 H        0.924     0.046     2.370     2.408
   175   1 H        0.926     0.036     2.498     2.472
   176   1 H        0.926     0.024     2.678     2.559
   177   1 H        0.926     0.034     2.524     2.484
   178   1 H        0.926     0.030     2.588     2.516
   179   1 H        0.926     0.035     2.515     2.480
   180   7 N        2.684    -0.178    24.857     7.405
   181   6 C        3.794     0.034    20.001     6.369
   182   6 C        2.762     0.202    23.701     7.973
   183   8 O        0.856    -0.340    20.523     6.074
   184   6 C        3.805    -0.067    21.777     6.643
   185   6 C        2.952     0.006    27.897     8.663
   186   6 C        2.910    -0.039    28.961     8.824
   187   6 C        2.913    -0.045    29.108     8.847
   188   6 C        2.904    -0.054    29.348     8.883
   189   6 C        2.908    -0.069    29.720     8.939
   190   6 C        2.832     0.138    24.983     8.191
   191   8 O        1.658    -0.415    21.148     6.208
   192   1 H        0.860     0.208     1.068     1.619
   193   1 H        0.924     0.098     1.806     2.101
   194   1 H        0.924     0.057     2.240     2.340
   195   1 H        0.924     0.067     2.121     2.277
   196   1 H        0.925     0.047     2.354     2.399
   197   1 H        0.926     0.061     2.191     2.315
   198   1 H        0.926     0.056     2.241     2.341
   199   1 H        0.926     0.035     2.515     2.480
   200   1 H        0.805     0.310     0.691     1.305
   201   1 H        0.928     0.061     2.186     2.312
   202   1 H        0.862     0.149     1.409     1.859
   203   7 N        2.640    -0.350    29.007     7.999
   204   6 C        3.782     0.030    20.090     6.385
   205   6 C        2.774     0.204    23.660     7.967
   206   8 O        0.857    -0.340    20.515     6.073
   207   6 C        3.846    -0.022    20.931     6.508
   208   6 C        3.752    -0.115    22.762     6.804
   209   6 C        3.753    -0.113    22.718     6.797
   210   1 H        0.860     0.204     1.086     1.632
   211   1 H        0.925     0.033     2.547     2.496
   212   1 H        0.926     0.045     2.377     2.411
   213   1 H        0.925     0.052     2.294     2.369
   214   1 H        0.925     0.026     2.650     2.546
   215   1 H        0.925     0.037     2.494     2.470
   216   1 H        0.925     0.051     2.313     2.378
   217   1 H        0.925     0.032     2.559     2.502
   218   1 H        0.925     0.047     2.359     2.402
   219   1 H        0.928     0.030     2.579     2.511
   220   1 H        0.862     0.142     1.457     1.891
   221   7 N        2.637    -0.356    29.169     8.021
   222   6 C        3.777     0.044    19.869     6.351
   223   6 C        2.768     0.191    23.917     8.009
   224   8 O        0.856    -0.356    20.823     6.118
   225   6 C        3.796    -0.072    21.889     6.662
   226   6 C        3.029    -0.047    29.125     8.852
   227   6 C        3.014    -0.008    28.196     8.710
   228   6 C        3.102    -0.021    28.404     8.733
   229   7 N        2.764    -0.104    23.286     7.167
   230   6 C        3.072     0.043    26.960     8.513
   231   6 C        2.914    -0.042    29.050     8.838
   232   6 C        2.910    -0.058    29.445     8.898
   233   6 C        2.915    -0.039    28.969     8.826
   234   6 C        2.927    -0.035    28.874     8.812
   235   1 H        0.860     0.204     1.085     1.631
   236   1 H        0.925     0.037     2.489     2.467
   237   1 H        0.925     0.051     2.304     2.374
   238   1 H        0.926     0.065     2.141     2.288
   239   1 H        0.925     0.031     2.569     2.507
   240   1 H        0.860     0.167     1.291     1.780
   241   1 H        0.926     0.040     2.445     2.445
   242   1 H        0.926     0.025     2.653     2.547
   243   1 H        0.926     0.028     2.621     2.532
   244   1 H        0.926     0.026     2.645     2.543
   245   1 H        0.928     0.038     2.480     2.462
   246   1 H        0.862     0.159     1.341     1.814
   247   7 N        2.633    -0.334    28.595     7.942
   248   6 C        3.783     0.033    20.033     6.376
   249   6 C        2.764     0.199    23.769     7.984
   250   8 O        0.856    -0.319    20.125     6.015
   251   6 C        3.725     0.105    18.954     6.216
   252   8 O        1.655    -0.464    22.125     6.350
   253   6 C        3.749    -0.127    23.007     6.841
   254   1 H        0.860     0.186     1.179     1.701
   255   1 H        0.925     0.043     2.404     2.425
   256   1 H        0.925     0.064     2.157     2.297
   257   1 H        0.804     0.322     0.658     1.274
   258   1 H        0.925     0.045     2.390     2.417
   259   1 H        0.925     0.042     2.423     2.434
   260   1 H        0.925     0.034     2.526     2.485
   261   1 H        0.927     0.037     2.491     2.468
   262   6 C        2.872     0.126    25.244     8.236
   263   7 N        2.778    -0.145    24.138     7.297
   264   8 O        1.704    -0.284    18.722     5.842
   265   6 C        2.916    -0.073    29.822     8.955
   266   7 N        1.897    -0.287    28.287     7.885
   267   8 O        1.706    -0.275    18.564     5.817
   268   6 C        2.919    -0.069    29.719     8.940
   269   7 N        1.852    -0.296    28.523     7.915
   270   6 C        2.856     0.133    25.090     8.210
   271   7 N        1.835    -0.311    28.914     7.968
   272   6 C        2.921    -0.062    29.547     8.914
   273   7 N        2.645    -0.255    26.625     7.663
   274   6 C        2.969    -0.003    28.101     8.695
   275   6 C        3.634     0.035    20.369     6.495
   276   6 C        3.812    -0.087    22.158     6.700
   277   6 C        3.202     0.152    24.192     8.014
   278   6 C        3.093    -0.027    28.554     8.758
   279   6 C        3.251     0.162    23.583     7.860
   280   6 C        2.875     0.164    24.466     8.109
   281   6 C        2.793     0.329    21.409     7.580
   282   6 C        3.641     0.028    20.456     6.503
   283   9 F        0.791    -0.185    11.083     3.933
   284   1 H        0.860     0.195     1.130     1.665
   285   1 H        0.926     0.044     2.394     2.420
   286   1 H        0.926     0.034     2.527     2.486
   287   1 H        0.926     0.051     2.303     2.373
   288   1 H        0.859     0.251     0.879     1.469
   289   1 H        0.860     0.198     1.118     1.656
   290   1 H        0.924     0.040     2.446     2.446
   291   1 H        0.925     0.065     2.141     2.288
   292   1 H        0.924     0.039     2.456     2.451
   293   1 H        0.924     0.117     1.634     1.999
   294   1 H        0.924     0.068     2.109     2.271
   295   1 H        0.924     0.055     2.259     2.350
   296   1 H        0.925     0.079     1.987     2.204
   297   1 H        0.924     0.029     2.606     2.525
   298   8 O        1.607    -0.569    24.449     6.673
   299   1 H        0.804     0.292     0.745     1.356
   300   1 H        0.804     0.290     0.751     1.361
   301   8 O        1.608    -0.593    25.017     6.751
   302   1 H        0.803     0.324     0.655     1.271
   303   1 H        0.805     0.298     0.728     1.341
   304   8 O        1.606    -0.662    26.727     6.977
   305   1 H        0.803     0.297     0.730     1.343
   306   1 H        0.803     0.303     0.712     1.325
   307   8 O        1.609    -0.598    25.137     6.767
   308   1 H        0.805     0.288     0.758     1.367
   309   1 H        0.804     0.326     0.647     1.263
   310   8 O        1.607    -0.659    26.654     6.968
   311   1 H        0.805     0.287     0.763     1.372
   312   1 H        0.803     0.314     0.681     1.297
   313   8 O        1.608    -0.627    25.851     6.862
   314   1 H        0.804     0.306     0.703     1.317
   315   1 H        0.804     0.296     0.732     1.344
   316   8 O        1.609    -0.567    24.423     6.670
   317   1 H        0.804     0.289     0.756     1.366
   318   1 H        0.805     0.294     0.740     1.352
   319   8 O        1.609    -0.588    24.892     6.734
   320   1 H        0.805     0.313     0.684     1.299
   321   1 H        0.805     0.296     0.735     1.346
   322   8 O        1.609    -0.603    25.250     6.782
   323   1 H        0.804     0.308     0.697     1.312
   324   1 H        0.805     0.267     0.831     1.431
   325   8 O        1.608    -0.594    25.036     6.753
   326   1 H        0.804     0.264     0.840     1.440
   327   1 H        0.805     0.300     0.720     1.332
   328   8 O        1.607    -0.637    26.088     6.894
   329   1 H        0.804     0.289     0.757     1.366
   330   1 H        0.803     0.336     0.622     1.239
   331   8 O        1.608    -0.619    25.646     6.835
   332   1 H        0.804     0.293     0.741     1.352
   333   1 H        0.806     0.304     0.709     1.322

 Mol. C6AA /au·bohr⁶  :    1005771.686396
 Mol. C8AA /au·bohr⁸  :   22338547.336319
 Mol. α(0) /au        :       1515.049375


Wiberg/Mayer (AO) data.
largest (>0.10) Wiberg bond orders for each atom

 ---------------------------------------------------------------------------
     #   Z sym  total        # sym  WBO       # sym  WBO       # sym  WBO
 ---------------------------------------------------------------------------
     1   1 H    0.978 --     2 N    0.968
     2   7 N    3.019 --     3 C    1.007     1 H    0.968    10 H    0.967
     3   6 C    3.976 --     2 N    1.007     6 C    0.983    11 H    0.950
                             4 C    0.947
     4   6 C    3.948 --     5 O    1.649    16 N    1.274     3 C    0.947
     5   8 O    1.972 --     4 C    1.649    16 N    0.194
     6   6 C    3.994 --     3 C    0.983    12 H    0.964     7 C    0.956
                            13 H    0.955
     7   6 C    3.954 --     8 O    1.665     9 N    1.307     6 C    0.956
     8   8 O    1.967 --     7 C    1.665     9 N    0.202
     9   7 N    3.387 --     7 C    1.307    15 H    0.916    14 H    0.892
                             8 O    0.202
    10   1 H    0.981 --     2 N    0.967
    11   1 H    0.993 --     3 C    0.950
    12   1 H    0.997 --     6 C    0.964
    13   1 H    0.996 --     6 C    0.955
    14   1 H    0.950 --     9 N    0.892
    15   1 H    0.950 --     9 N    0.916
    16   7 N    3.452 --     4 C    1.274    17 C    0.973    22 H    0.929
                             5 O    0.194
    17   6 C    3.963 --    16 N    0.973    18 C    0.972    20 C    0.962
                            23 H    0.941
    18   6 C    3.923 --    19 O    1.924    17 C    0.972    27 H    0.950
    19   8 O    2.082 --    18 C    1.924
    20   6 C    3.973 --    21 O    1.018    24 H    0.970    25 H    0.964
                            17 C    0.962
    21   8 O    1.918 --    20 C    1.018    26 H    0.778
    22   1 H    0.966 --    16 N    0.929
    23   1 H    0.988 --    17 C    0.941
    24   1 H    0.998 --    20 C    0.970
    25   1 H    0.998 --    20 C    0.964
    26   1 H    0.882 --    21 O    0.778
    27   1 H    0.998 --    18 C    0.950
    28   1 H    0.981 --    29 N    0.971
    29   7 N    3.043 --    30 C    1.016    28 H    0.971    34 H    0.950
    30   6 C    3.982 --    29 N    1.016    31 C    0.979    33 C    0.971
                            35 H    0.950
    31   6 C    3.899 --    32 O    1.876    30 C    0.979    39 H    0.947
    32   8 O    2.053 --    31 C    1.876
    33   6 C    3.985 --    37 H    0.982    36 H    0.978    38 H    0.975
                            30 C    0.971
    34   1 H    0.973 --    29 N    0.950
    35   1 H    0.996 --    30 C    0.950
    36   1 H    0.997 --    33 C    0.978
    37   1 H    0.997 --    33 C    0.982
    38   1 H    0.995 --    33 C    0.975
    39   1 H    0.998 --    31 C    0.947
    40   1 H    0.981 --    41 N    0.971
    41   7 N    3.030 --    42 C    1.043    40 H    0.971    49 H    0.921
    42   6 C    3.991 --    41 N    1.043    43 C    0.974    50 H    0.945
                            45 C    0.942
    43   6 C    3.913 --    44 O    1.903    42 C    0.974    53 H    0.950
    44   8 O    2.068 --    43 C    1.903
    45   6 C    3.986 --    52 H    0.970    51 H    0.967    46 C    0.942
                            42 C    0.942
    46   6 C    3.941 --    47 O    1.538    48 O    1.424    45 C    0.942
    47   8 O    1.919 --    46 C    1.538    48 O    0.203
    48   8 O    1.892 --    46 C    1.424    47 O    0.203
    49   1 H    0.963 --    41 N    0.921
    50   1 H    0.999 --    42 C    0.945
    51   1 H    0.999 --    45 C    0.967
    52   1 H    0.998 --    45 C    0.970
    53   1 H    0.999 --    43 C    0.950
    54   1 H    0.975 --    55 N    0.965
    55   7 N    3.001 --    56 C    1.021    54 H    0.965    63 H    0.931
    56   6 C    3.971 --    55 N    1.021    59 C    0.968    64 H    0.945
                            57 C    0.935
    57   6 C    3.939 --    58 O    1.639    74 N    1.297    56 C    0.935
    58   8 O    1.942 --    57 C    1.639    74 N    0.193
    59   6 C    3.990 --    60 C    1.001    61 C    0.999    56 C    0.968
                            65 H    0.964
    60   6 C    3.993 --    62 C    1.008    59 C    1.001    66 H    0.979
                            67 H    0.977
    61   6 C    3.990 --    59 C    0.999    68 H    0.989    70 H    0.981
                            69 H    0.979
    62   6 C    3.996 --    60 C    1.008    71 H    0.992    72 H    0.991
                            73 H    0.989
    63   1 H    0.968 --    55 N    0.931
    64   1 H    0.989 --    56 C    0.945
    65   1 H    0.997 --    59 C    0.964
    66   1 H    0.997 --    60 C    0.979
    67   1 H    0.998 --    60 C    0.977
    68   1 H    0.999 --    61 C    0.989
    69   1 H    0.998 --    61 C    0.979
    70   1 H    0.996 --    61 C    0.981
    71   1 H    0.999 --    62 C    0.992
    72   1 H    0.999 --    62 C    0.991
    73   1 H    0.999 --    62 C    0.989
    74   7 N    3.468 --    57 C    1.297    75 C    1.010    78 H    0.901
                            58 O    0.193
    75   6 C    3.982 --    74 N    1.010    76 C    0.958    79 H    0.956
                            80 H    0.948
    76   6 C    3.950 --    77 O    1.675    81 N    1.252    75 C    0.958
    77   8 O    1.985 --    76 C    1.675    81 N    0.185
    78   1 H    0.946 --    74 N    0.901
    79   1 H    0.994 --    75 C    0.956
    80   1 H    0.994 --    75 C    0.948
    81   7 N    3.436 --    76 C    1.252    82 C    0.984    89 H    0.935
                            77 O    0.185
    82   6 C    3.971 --    81 N    0.984    83 C    0.979    85 C    0.956
                            90 H    0.947
    83   6 C    3.891 --    84 O    1.899    82 C    0.979    98 H    0.951
    84   8 O    2.038 --    83 C    1.899
    85   6 C    3.991 --    86 C    1.006    92 H    0.973    91 H    0.971
                            82 C    0.956
    86   6 C    3.978 --    85 C    1.006    87 S    0.998    94 H    0.968
                            93 H    0.966
    87  16 S    2.083 --    86 C    0.998    88 C    0.993
    88   6 C    3.981 --    87 S    0.993    97 H    0.986    96 H    0.984
                            95 H    0.977
    89   1 H    0.967 --    81 N    0.935
    90   1 H    0.991 --    82 C    0.947
    91   1 H    0.997 --    85 C    0.971
    92   1 H    0.997 --    85 C    0.973
    93   1 H    0.996 --    86 C    0.966
    94   1 H    0.996 --    86 C    0.968
    95   1 H    0.996 --    88 C    0.977
    96   1 H    0.998 --    88 C    0.984
    97   1 H    0.998 --    88 C    0.986
    98   1 H    0.997 --    83 C    0.951
    99   1 H    0.977 --   100 N    0.967
   100   7 N    3.036 --   101 C    1.014    99 H    0.967   108 H    0.963
   101   6 C    3.981 --   100 N    1.014   104 C    0.970   102 C    0.967
                           109 H    0.947
   102   6 C    3.895 --   103 O    1.900   101 C    0.967   119 H    0.949
   103   8 O    2.050 --   102 C    1.900
   104   6 C    3.992 --   105 C    0.992   110 H    0.974   111 H    0.971
                           101 C    0.970
   105   6 C    3.995 --   107 C    1.015   106 C    1.001   104 C    0.992
                           112 H    0.968
   106   6 C    3.994 --   105 C    1.001   115 H    0.988   114 H    0.985
                           113 H    0.983
   107   6 C    3.995 --   105 C    1.015   117 H    0.982   118 H    0.982
                           116 H    0.979
   108   1 H    0.979 --   100 N    0.963
   109   1 H    0.996 --   101 C    0.947
   110   1 H    0.998 --   104 C    0.974
   111   1 H    0.999 --   104 C    0.971
   112   1 H    0.999 --   105 C    0.968
   113   1 H    0.999 --   106 C    0.983
   114   1 H    0.997 --   106 C    0.985
   115   1 H    0.999 --   106 C    0.988
   116   1 H    0.997 --   107 C    0.979
   117   1 H    0.998 --   107 C    0.982
   118   1 H    0.998 --   107 C    0.982
   119   1 H    0.998 --   102 C    0.949
   120   1 H    0.978 --   121 N    0.968
   121   7 N    3.053 --   122 C    1.010   120 H    0.968   129 H    0.963
   122   6 C    3.978 --   121 N    1.010   123 C    0.983   125 C    0.966
                           130 H    0.939
   123   6 C    3.893 --   124 O    1.855   122 C    0.983   140 H    0.947
   124   8 O    2.088 --   123 C    1.855
   125   6 C    3.989 --   126 C    0.982   131 H    0.974   132 H    0.966
                           122 C    0.966
   126   6 C    3.995 --   128 C    1.011   127 C    1.010   125 C    0.982
                           133 H    0.967
   127   6 C    3.991 --   126 C    1.010   136 H    0.985   134 H    0.976
                           135 H    0.969
   128   6 C    3.991 --   126 C    1.011   137 H    0.983   138 H    0.980
                           139 H    0.975
   129   1 H    0.979 --   121 N    0.963
   130   1 H    0.993 --   122 C    0.939
   131   1 H    0.998 --   125 C    0.974
   132   1 H    0.998 --   125 C    0.966
   133   1 H    0.999 --   126 C    0.967
   134   1 H    0.998 --   127 C    0.976
   135   1 H    0.993 --   127 C    0.969
   136   1 H    1.000 --   127 C    0.985
   137   1 H    0.998 --   128 C    0.983
   138   1 H    0.995 --   128 C    0.980
   139   1 H    0.995 --   128 C    0.975
   140   1 H    0.997 --   123 C    0.947
   141   1 H    0.977 --   142 N    0.969
   142   7 N    3.038 --   143 C    1.022   141 H    0.969   149 H    0.966
   143   6 C    3.979 --   142 N    1.022   144 C    0.994   146 C    0.942
                           150 H    0.927
   144   6 C    3.835 --   145 O    1.810   143 C    0.994   158 H    0.949
   145   8 O    1.974 --   144 C    1.810
   146   6 C    3.991 --   147 C    1.025   148 C    1.007   151 H    0.956
                           143 C    0.942
   147   6 C    3.997 --   146 C    1.025   154 H    0.983   152 H    0.982
                           153 H    0.981
   148   6 C    3.997 --   146 C    1.007   155 H    0.988   156 H    0.986
                           157 H    0.985
   149   1 H    0.980 --   142 N    0.966
   150   1 H    0.991 --   143 C    0.927
   151   1 H    0.997 --   146 C    0.956
   152   1 H    0.998 --   147 C    0.982
   153   1 H    0.999 --   147 C    0.981
   154   1 H    0.998 --   147 C    0.983
   155   1 H    0.999 --   148 C    0.988
   156   1 H    0.999 --   148 C    0.986
   157   1 H    0.998 --   148 C    0.985
   158   1 H    0.997 --   144 C    0.949
   159   1 H    0.978 --   160 N    0.967
   160   7 N    3.009 --   161 C    1.015   159 H    0.967   171 H    0.920
   161   6 C    3.984 --   160 N    1.015   164 C    0.963   172 H    0.956
                           162 C    0.943
   162   6 C    3.945 --   163 O    1.658   180 N    1.272   161 C    0.943
   163   8 O    1.963 --   162 C    1.658   180 N    0.192
   164   6 C    3.993 --   165 C    1.006   174 H    0.973   161 C    0.963
                           173 H    0.963
   165   6 C    3.988 --   166 C    1.442   167 C    1.401   164 C    1.006
   166   6 C    3.989 --   165 C    1.442   168 C    1.407   175 H    0.959
                           169 C    0.115
   167   6 C    3.990 --   169 C    1.446   165 C    1.401   176 H    0.969
                           168 C    0.120
   168   6 C    3.989 --   170 C    1.459   166 C    1.407   177 H    0.973
                           167 C    0.120
   169   6 C    3.991 --   167 C    1.446   170 C    1.431   178 H    0.971
                           166 C    0.115
   170   6 C    3.990 --   168 C    1.459   169 C    1.431   179 H    0.969
   171   1 H    0.968 --   160 N    0.920
   172   1 H    0.998 --   161 C    0.956
   173   1 H    0.996 --   164 C    0.963
   174   1 H    0.998 --   164 C    0.973
   175   1 H    0.999 --   166 C    0.959
   176   1 H    0.999 --   167 C    0.969
   177   1 H    0.999 --   168 C    0.973
   178   1 H    0.999 --   169 C    0.971
   179   1 H    0.998 --   170 C    0.969
   180   7 N    3.447 --   162 C    1.272   181 C    0.990   192 H    0.913
                           163 O    0.192
   181   6 C    3.973 --   180 N    0.990   182 C    0.988   184 C    0.952
                           193 H    0.926
   182   6 C    3.910 --   183 O    1.900   181 C    0.988   201 H    0.949
   183   8 O    2.050 --   182 C    1.900
   184   6 C    3.989 --   185 C    1.009   194 H    0.973   195 H    0.966
                           181 C    0.952
   185   6 C    3.987 --   186 C    1.435   187 C    1.392   184 C    1.009
   186   6 C    3.987 --   185 C    1.435   188 C    1.408   196 H    0.971
                           189 C    0.114
   187   6 C    3.986 --   189 C    1.459   185 C    1.392   197 H    0.957
                           188 C    0.111
   188   6 C    3.986 --   190 C    1.410   186 C    1.408   198 H    0.969
                           187 C    0.111
   189   6 C    3.987 --   187 C    1.459   190 C    1.365   199 H    0.964
                           186 C    0.114
   190   6 C    3.930 --   188 C    1.410   189 C    1.365   191 O    1.027
   191   8 O    2.106 --   190 C    1.027   200 H    0.880
   192   1 H    0.957 --   180 N    0.913
   193   1 H    0.990 --   181 C    0.926
   194   1 H    0.996 --   184 C    0.973
   195   1 H    0.994 --   184 C    0.966
   196   1 H    0.997 --   186 C    0.971
   197   1 H    0.996 --   187 C    0.957
   198   1 H    0.997 --   188 C    0.969
   199   1 H    0.998 --   189 C    0.964
   200   1 H    0.903 --   191 O    0.880
   201   1 H    0.996 --   182 C    0.949
   202   1 H    0.978 --   203 N    0.968
   203   7 N    3.079 --   204 C    1.003   202 H    0.968   210 H    0.902
   204   6 C    3.985 --   203 N    1.003   205 C    0.990   211 H    0.970
                           207 C    0.938
   205   6 C    3.909 --   206 O    1.868   204 C    0.990   219 H    0.946
   206   8 O    2.086 --   205 C    1.868
   207   6 C    3.992 --   209 C    1.010   208 C    1.007   212 H    0.958
                           204 C    0.938
   208   6 C    3.995 --   207 C    1.007   214 H    0.986   215 H    0.985
                           213 H    0.979
   209   6 C    3.995 --   207 C    1.010   217 H    0.987   218 H    0.982
                           216 H    0.981
   210   1 H    0.958 --   203 N    0.902
   211   1 H    0.998 --   204 C    0.970
   212   1 H    0.998 --   207 C    0.958
   213   1 H    0.997 --   208 C    0.979
   214   1 H    0.999 --   208 C    0.986
   215   1 H    0.998 --   208 C    0.985
   216   1 H    0.997 --   209 C    0.981
   217   1 H    0.999 --   209 C    0.987
   218   1 H    0.998 --   209 C    0.982
   219   1 H    0.999 --   205 C    0.946
   220   1 H    0.979 --   221 N    0.969
   221   7 N    3.052 --   222 C    1.019   220 H    0.969   235 H    0.909
   222   6 C    3.988 --   221 N    1.019   223 C    0.997   236 H    0.963
                           225 C    0.931
   223   6 C    3.895 --   224 O    1.840   222 C    0.997   245 H    0.953
   224   8 O    2.051 --   223 C    1.840
   225   6 C    3.987 --   226 C    1.004   237 H    0.967   238 H    0.958
                           222 C    0.931
   226   6 C    3.970 --   227 C    1.572   228 C    1.213   225 C    1.004
   227   6 C    3.950 --   226 C    1.572   229 N    1.205   239 H    0.967
   228   6 C    3.984 --   231 C    1.331   230 C    1.241   226 C    1.213
   229   7 N    3.542 --   227 C    1.205   230 C    1.168   240 H    0.943
   230   6 C    3.958 --   232 C    1.354   228 C    1.241   229 N    1.168
   231   6 C    3.991 --   233 C    1.487   228 C    1.331   241 H    0.965
                           232 C    0.120
   232   6 C    3.988 --   234 C    1.466   230 C    1.354   242 H    0.969
                           231 C    0.120
   233   6 C    3.992 --   231 C    1.487   234 C    1.397   243 H    0.970
   234   6 C    3.991 --   232 C    1.466   233 C    1.397   244 H    0.971
   235   1 H    0.958 --   221 N    0.909
   236   1 H    0.998 --   222 C    0.963
   237   1 H    0.997 --   225 C    0.967
   238   1 H    0.996 --   225 C    0.958
   239   1 H    0.998 --   227 C    0.967
   240   1 H    0.971 --   229 N    0.943
   241   1 H    0.998 --   231 C    0.965
   242   1 H    0.999 --   232 C    0.969
   243   1 H    0.999 --   233 C    0.970
   244   1 H    0.999 --   234 C    0.971
   245   1 H    0.999 --   223 C    0.953
   246   1 H    0.975 --   247 N    0.964
   247   7 N    3.034 --   248 C    1.025   246 H    0.964   254 H    0.944
   248   6 C    3.991 --   247 N    1.025   249 C    0.978   255 H    0.964
                           251 C    0.934
   249   6 C    3.906 --   250 O    1.908   248 C    0.978   261 H    0.946
   250   8 O    2.095 --   249 C    1.908
   251   6 C    3.951 --   253 C    0.994   252 O    0.981   256 H    0.958
                           248 C    0.934
   252   8 O    1.980 --   251 C    0.981   257 H    0.857
   253   6 C    3.995 --   251 C    0.994   258 H    0.985   260 H    0.984
                           259 H    0.983
   254   1 H    0.965 --   247 N    0.944
   255   1 H    0.998 --   248 C    0.964
   256   1 H    0.996 --   251 C    0.958
   257   1 H    0.896 --   252 O    0.857
   258   1 H    0.998 --   253 C    0.985
   259   1 H    0.998 --   253 C    0.983
   260   1 H    0.999 --   253 C    0.984
   261   1 H    0.999 --   249 C    0.946
   262   6 C    3.937 --   265 C    1.402   274 C    1.292   267 O    1.057
   263   7 N    3.541 --   277 C    1.230   278 C    1.147   284 H    0.905
                           266 N    0.102
   264   8 O    2.200 --   270 C    1.046   275 C    0.981
   265   6 C    3.986 --   268 C    1.413   262 C    1.402   285 H    0.963
   266   7 N    3.072 --   277 C    1.515   279 C    1.226   263 N    0.102
   267   8 O    2.222 --   262 C    1.057   282 C    0.974
   268   6 C    3.987 --   265 C    1.413   270 C    1.392   286 H    0.967
                           274 C    0.104
   269   7 N    3.055 --   281 C    1.369   280 C    1.314
   270   6 C    3.935 --   268 C    1.392   272 C    1.338   264 O    1.046
   271   7 N    3.064 --   281 C    1.417   279 C    1.258
   272   6 C    3.987 --   274 C    1.467   270 C    1.338   287 H    0.962
   273   7 N    3.410 --   280 C    1.316   289 H    0.930   288 H    0.879
   274   6 C    3.981 --   272 C    1.467   262 C    1.292   276 C    0.991
                           268 C    0.104
   275   6 C    3.945 --   264 O    0.981   292 H    0.977   291 H    0.976
                           290 H    0.973
   276   6 C    3.988 --   277 C    1.023   274 C    0.991   294 H    0.945
                           293 H    0.938
   277   6 C    3.958 --   266 N    1.515   263 N    1.230   276 C    1.023
   278   6 C    3.941 --   279 C    1.299   280 C    1.197   263 N    1.147
   279   6 C    3.976 --   278 C    1.299   271 N    1.258   266 N    1.226
   280   6 C    3.974 --   273 N    1.316   269 N    1.314   278 C    1.197
   281   6 C    3.905 --   271 N    1.417   269 N    1.369   283 F    0.985
   282   6 C    3.938 --   296 H    0.976   297 H    0.975   267 O    0.974
                           295 H    0.972
   283   9 F    1.149 --   281 C    0.985
   284   1 H    0.962 --   263 N    0.905
   285   1 H    0.997 --   265 C    0.963
   286   1 H    0.998 --   268 C    0.967
   287   1 H    0.997 --   272 C    0.962
   288   1 H    0.936 --   273 N    0.879
   289   1 H    0.960 --   273 N    0.930
   290   1 H    0.998 --   275 C    0.973
   291   1 H    0.995 --   275 C    0.976
   292   1 H    0.998 --   275 C    0.977
   293   1 H    0.985 --   276 C    0.938
   294   1 H    0.994 --   276 C    0.945
   295   1 H    0.997 --   282 C    0.972
   296   1 H    0.993 --   282 C    0.976
   297   1 H    0.999 --   282 C    0.975
   298   8 O    1.858 --   300 H    0.913   299 H    0.913
   299   1 H    0.915 --   298 O    0.913
   300   1 H    0.916 --   298 O    0.913
   301   8 O    1.885 --   303 H    0.890   302 H    0.868
   302   1 H    0.895 --   301 O    0.868
   303   1 H    0.911 --   301 O    0.890
   304   8 O    1.782 --   305 H    0.862   306 H    0.857
   305   1 H    0.912 --   304 O    0.862
   306   1 H    0.908 --   304 O    0.857
   307   8 O    1.851 --   308 H    0.905   309 H    0.870
   308   1 H    0.917 --   307 O    0.905
   309   1 H    0.893 --   307 O    0.870
   310   8 O    1.796 --   311 H    0.870   312 H    0.838
   311   1 H    0.918 --   310 O    0.870
   312   1 H    0.901 --   310 O    0.838
   313   8 O    1.835 --   315 H    0.887   314 H    0.840
   314   1 H    0.906 --   313 O    0.840
   315   1 H    0.912 --   313 O    0.887
   316   8 O    1.860 --   317 H    0.914   318 H    0.912
   317   1 H    0.917 --   316 O    0.914
   318   1 H    0.914 --   316 O    0.912
   319   8 O    1.861 --   321 H    0.908   320 H    0.883
   320   1 H    0.902 --   319 O    0.883
   321   1 H    0.912 --   319 O    0.908
   322   8 O    1.815 --   324 H    0.928   323 H    0.862
   323   1 H    0.905 --   322 O    0.862
   324   1 H    0.929 --   322 O    0.928
   325   8 O    1.821 --   326 H    0.929   327 H    0.868
   326   1 H    0.930 --   325 O    0.929
   327   1 H    0.910 --   325 O    0.868
   328   8 O    1.817 --   329 H    0.908   330 H    0.835
   329   1 H    0.917 --   328 O    0.908
   330   1 H    0.887 --   328 O    0.835
   331   8 O    1.846 --   332 H    0.890   333 H    0.838
   332   1 H    0.914 --   331 O    0.890
   333   1 H    0.907 --   331 O    0.838
 ---------------------------------------------------------------------------

Topologies differ in total number of bonds
Writing topology from bond orders to xtbtopo.mol

molecular dipole:
                 x           y           z       tot (Debye)
 q only:        4.359     -20.384     -51.513
   full:        2.252     -20.270     -52.581     143.349
molecular quadrupole (traceless):
                xx          xy          yy          xz          yz          zz
 q only:     1515.426      86.013     923.073     428.504   -1474.671   -2438.499
  q+dip:     1587.352       8.856     967.226     318.384   -1463.104   -2554.579
   full:     1582.304       7.515     971.965     316.666   -1462.835   -2554.269


           -------------------------------------------------
          | TOTAL ENERGY             -510.711688691436 Eh   |
          | GRADIENT NORM               0.571137291077 Eh/α |
          | HOMO-LUMO GAP               0.157820273703 eV   |
           -------------------------------------------------

------------------------------------------------------------------------
 * finished run on 2024/01/03 at 00:44:04.754     
------------------------------------------------------------------------
 total:
 * wall-time:     0 d,  0 h,  0 min, 16.172 sec
 *  cpu-time:     0 d,  0 h,  3 min, 21.252 sec
 * ratio c/w:    12.445 speedup
 SCF:
 * wall-time:     0 d,  0 h,  0 min, 15.552 sec
 *  cpu-time:     0 d,  0 h,  3 min, 15.139 sec
 * ratio c/w:    12.547 speedup

