      -----------------------------------------------------------      
     |                   =====================                   |     
     |                           x T B                           |     
     |                   =====================                   |     
     |                         S. Grimme                         |     
     |          Mulliken Center for Theoretical Chemistry        |     
     |                    University of Bonn                     |     
      -----------------------------------------------------------      

   * xtb version 6.5.1 (b24c23e) compiled by 'conda@728c89f4b128' on 2022-07-12

   xtb is free software: you can redistribute it and/or modify it under
   the terms of the GNU Lesser General Public License as published by
   the Free Software Foundation, either version 3 of the License, or
   (at your option) any later version.
   
   xtb is distributed in the hope that it will be useful,
   but WITHOUT ANY WARRANTY; without even the implied warranty of
   MERCHANTABILITY or FITNESS FOR A PARTICULAR PURPOSE.  See the
   GNU Lesser General Public License for more details.
   
   Cite this work as:
   * C. Bannwarth, E. Caldeweyher, S. Ehlert, A. Hansen, P. Pracht,
     J. Seibert, S. Spicher, S. Grimme, WIREs Comput. Mol. Sci., 2020, 11,
     e01493. DOI: 10.1002/wcms.1493
   
   for GFN2-xTB:
   * C. Bannwarth, S. Ehlert and S. Grimme., J. Chem. Theory Comput., 2019,
     15, 1652-1671. DOI: 10.1021/acs.jctc.8b01176
   for GFN1-xTB:
   * S. Grimme, C. Bannwarth, P. Shushkov, J. Chem. Theory Comput., 2017,
     13, 1989-2009. DOI: 10.1021/acs.jctc.7b00118
   for GFN0-xTB:
   * P. Pracht, E. Caldeweyher, S. Ehlert, S. Grimme, ChemRxiv, 2019, preprint.
     DOI: 10.26434/chemrxiv.8326202.v1
   for GFN-FF:
   * S. Spicher and S. Grimme, Angew. Chem. Int. Ed., 2020, 59, 15665-15673.
     DOI: 10.1002/anie.202004239
   
   for ALPB and GBSA implicit solvation:
   * S. Ehlert, M. Stahn, S. Spicher, S. Grimme, J. Chem. Theory Comput.,
     2021, 17, 4250-4261. DOI: 10.1021/acs.jctc.1c00471
   
   for DFT-D4:
   * E. Caldeweyher, C. Bannwarth and S. Grimme, J. Chem. Phys., 2017,
     147, 034112. DOI: 10.1063/1.4993215
   * E. Caldeweyher, S. Ehlert, A. Hansen, H. Neugebauer, S. Spicher,
     C. Bannwarth and S. Grimme, J. Chem. Phys., 2019, 150, 154122.
     DOI: 10.1063/1.5090222
   * E. Caldeweyher, J.-M. Mewes, S. Ehlert and S. Grimme, Phys. Chem. Chem. Phys.
     2020, 22, 8499-8512. DOI: 10.1039/D0CP00502A
   
   for sTDA-xTB:
   * S. Grimme and C. Bannwarth, J. Chem. Phys., 2016, 145, 054103.
     DOI: 10.1063/1.4959605
   
   in the mass-spec context:
   * V. Asgeirsson, C. Bauer and S. Grimme, Chem. Sci., 2017, 8, 4879.
     DOI: 10.1039/c7sc00601b
   * J. Koopman and S. Grimme, ACS Omega 2019, 4, 12, 15120-15133.
     DOI: 10.1021/acsomega.9b02011
   
   for metadynamics refer to:
   * S. Grimme, J. Chem. Theory Comput., 2019, 155, 2847-2862
     DOI: 10.1021/acs.jctc.9b00143
   
   for SPH calculations refer to:
   * S. Spicher and S. Grimme, J. Chem. Theory Comput., 2021, 17, 1701-1714
     DOI: 10.1021/acs.jctc.0c01306
   
   with help from (in alphabetical order)
   P. Atkinson, C. Bannwarth, F. Bohle, G. Brandenburg, E. Caldeweyher
   M. Checinski, S. Dohm, S. Ehlert, S. Ehrlich, I. Gerasimov, C. Hölzer
   A. Katbashev, J. Koopman, C. Lavigne, S. Lehtola, F. März, M. Müller,
   F. Musil, H. Neugebauer, J. Pisarek, C. Plett, P. Pracht, F. Pultar,
   J. Seibert, P. Shushkov, S. Spicher, M. Stahn, M. Steiner, T. Strunk,
   J. Stückrath, T. Rose, and J. Unsleber
   
 * started run on 2022/10/11 at 01:30:50.618     

           -------------------------------------------------
          |                Calculation Setup                |
           -------------------------------------------------

          program call               : xtb gau_xtb.xyz --chrg 0 --uhf 0 --grad
          hostname                   : node36
          coordinate file            : gau_xtb.xyz
          omp threads                :                    24

   ID    Z sym.   atoms
    1    6 C      1, 3, 5, 7, 9, 11, 12, 14, 15, 17, 19, 21, 23-26, 32, 33,
                  35, 38
    2    1 H      2, 4, 8, 10, 16, 18, 20, 22, 27-29, 34, 36, 37, 41, 42
    3   17 Cl     6
    4    7 N      13, 30, 40
    5    8 O      31, 39

           -------------------------------------------------
          |                 G F N 2 - x T B                 |
           -------------------------------------------------

        Reference                      10.1021/acs.jctc.8b01176
      * Hamiltonian:
        H0-scaling (s, p, d)           1.850000    2.230000    2.230000
        zeta-weighting                 0.500000
      * Dispersion:
        s8                             2.700000
        a1                             0.520000
        a2                             5.000000
        s9                             5.000000
      * Repulsion:
        kExp                           1.500000    1.000000
        rExp                           1.000000
      * Coulomb:
        alpha                          2.000000
        third order                    shell-resolved
        anisotropic                    true
        a3                             3.000000
        a5                             4.000000
        cn-shift                       1.200000
        cn-exp                         4.000000
        max-rad                        5.000000


          ...................................................
          :                      SETUP                      :
          :.................................................:
          :  # basis functions                 126          :
          :  # atomic orbitals                 125          :
          :  # shells                           69          :
          :  # electrons                       130          :
          :  max. iterations                   250          :
          :  Hamiltonian                  GFN2-xTB          :
          :  restarted?                      false          :
          :  GBSA solvation                  false          :
          :  PC potential                    false          :
          :  electronic temp.          300.0000000     K    :
          :  accuracy                    1.0000000          :
          :  -> integral cutoff          0.2500000E+02      :
          :  -> integral neglect         0.1000000E-07      :
          :  -> SCF convergence          0.1000000E-05 Eh   :
          :  -> wf. convergence          0.1000000E-03 e    :
          :  Broyden damping             0.4000000          :
          ...................................................

 iter      E             dE          RMSdq      gap      omega  full diag
   1    -73.3174316 -0.733174E+02  0.437E+00    2.79       0.0  T
   2    -73.4144390 -0.970074E-01  0.263E+00    2.70       1.0  T
   3    -73.4022201  0.122189E-01  0.132E+00    2.59       1.0  T
   4    -73.4273702 -0.251501E-01  0.525E-01    2.62       1.0  T
   5    -73.4380862 -0.107160E-01  0.111E-01    2.55       1.0  T
   6    -73.4382306 -0.144446E-03  0.591E-02    2.56       1.0  T
   7    -73.4382905 -0.598495E-04  0.266E-02    2.55       1.0  T
   8    -73.4382936 -0.311488E-05  0.127E-02    2.55       1.2  T
   9    -73.4382971 -0.346416E-05  0.539E-03    2.55       2.9  T
  10    -73.4382973 -0.242532E-06  0.337E-03    2.55       4.6  T
  11    -73.4382974 -0.111047E-06  0.225E-03    2.55       6.8  T
  12    -73.4382975 -0.532708E-07  0.134E-03    2.55      11.5  T
  13    -73.4382975 -0.204975E-07  0.847E-04    2.55      18.2  T
  14    -73.4382975 -0.118785E-07  0.362E-04    2.55      42.6  T

   *** convergence criteria satisfied after 14 iterations ***

         #    Occupation            Energy/Eh            Energy/eV
      -------------------------------------------------------------
         1        2.0000           -1.0578899             -28.7866
       ...           ...                  ...                  ...
        59        2.0000           -0.4191520             -11.4057
        60        2.0000           -0.4107598             -11.1773
        61        2.0000           -0.4050875             -11.0230
        62        2.0000           -0.3986885             -10.8489
        63        2.0000           -0.3980882             -10.8325
        64        2.0000           -0.3936984             -10.7131
        65        2.0000           -0.3711520             -10.0996 (HOMO)
        66                         -0.2772677              -7.5448 (LUMO)
        67                         -0.2531177              -6.8877
        68                         -0.2444690              -6.6523
        69                         -0.2403416              -6.5400
        70                         -0.2340000              -6.3675
       ...                                ...                  ...
       125                          0.6682531              18.1841
      -------------------------------------------------------------
                  HL-Gap            0.0938843 Eh            2.5547 eV
             Fermi-level           -0.3242098 Eh           -8.8222 eV

 SCC (total)                   0 d,  0 h,  0 min,  0.577 sec
 SCC setup                      ...        0 min,  0.005 sec (  0.875%)
 Dispersion                     ...        0 min,  0.018 sec (  3.076%)
 classical contributions        ...        0 min,  0.019 sec (  3.305%)
 integral evaluation            ...        0 min,  0.003 sec (  0.438%)
 iterations                     ...        0 min,  0.438 sec ( 75.949%)
 molecular gradient             ...        0 min,  0.094 sec ( 16.214%)
 printout                       ...        0 min,  0.000 sec (  0.070%)

         :::::::::::::::::::::::::::::::::::::::::::::::::::::
         ::                     SUMMARY                     ::
         :::::::::::::::::::::::::::::::::::::::::::::::::::::
         :: total energy             -72.406921477193 Eh    ::
         :: gradient norm              0.059489215265 Eh/a0 ::
         :: HOMO-LUMO gap              2.554721047983 eV    ::
         ::.................................................::
         :: SCC energy               -73.438297489883 Eh    ::
         :: -> isotropic ES            0.066099771437 Eh    ::
         :: -> anisotropic ES          0.002242196175 Eh    ::
         :: -> anisotropic XC          0.041900511034 Eh    ::
         :: -> dispersion             -0.052830251298 Eh    ::
         :: repulsion energy           1.030775053024 Eh    ::
         :: add. restraining           0.000000000000 Eh    ::
         :: total charge               0.000000000000 e     ::
         :::::::::::::::::::::::::::::::::::::::::::::::::::::

           -------------------------------------------------
          |                Property Printout                |
           -------------------------------------------------

    * Orbital Energies and Occupations

         #    Occupation            Energy/Eh            Energy/eV
      -------------------------------------------------------------
         1        2.0000           -1.0578899             -28.7866
       ...           ...                  ...                  ...
        53        2.0000           -0.4415906             -12.0163
        54        2.0000           -0.4384009             -11.9295
        55        2.0000           -0.4294230             -11.6852
        56        2.0000           -0.4246891             -11.5564
        57        2.0000           -0.4237661             -11.5313
        58        2.0000           -0.4216647             -11.4741
        59        2.0000           -0.4191520             -11.4057
        60        2.0000           -0.4107598             -11.1773
        61        2.0000           -0.4050875             -11.0230
        62        2.0000           -0.3986885             -10.8489
        63        2.0000           -0.3980882             -10.8325
        64        2.0000           -0.3936984             -10.7131
        65        2.0000           -0.3711520             -10.0996 (HOMO)
        66                         -0.2772677              -7.5448 (LUMO)
        67                         -0.2531177              -6.8877
        68                         -0.2444690              -6.6523
        69                         -0.2403416              -6.5400
        70                         -0.2340000              -6.3675
        71                         -0.2093677              -5.6972
        72                         -0.1918412              -5.2203
        73                         -0.1675161              -4.5583
        74                         -0.1367479              -3.7211
        75                         -0.1145076              -3.1159
        76                         -0.0904391              -2.4610
       ...                                ...                  ...
       125                          0.6682531              18.1841
      -------------------------------------------------------------
                  HL-Gap            0.0938843 Eh            2.5547 eV
             Fermi-level           -0.3242098 Eh           -8.8222 eV

     #   Z          covCN         q      C6AA      α(0)
     1   6 C        2.926    -0.030    28.745     8.792
     2   1 H        0.926     0.048     2.346     2.395
     3   6 C        2.987    -0.042    29.026     8.838
     4   1 H        0.926     0.058     2.222     2.331
     5   6 C        2.888     0.099    25.800     8.328
     6  17 Cl       0.989    -0.170   104.504    15.640
     7   6 C        2.925    -0.038    28.947     8.823
     8   1 H        0.926     0.062     2.170     2.303
     9   6 C        2.919    -0.021    28.534     8.760
    10   1 H        0.926     0.072     2.063     2.246
    11   6 C        2.979     0.009    27.813     8.651
    12   6 C        2.918     0.106    25.660     8.307
    13   7 N        1.870    -0.242    27.181     7.728
    14   6 C        2.968    -0.013    28.344     8.733
    15   6 C        2.916    -0.027    28.676     8.781
    16   1 H        0.926     0.039     2.465     2.455
    17   6 C        2.915    -0.033    28.814     8.802
    18   1 H        0.926     0.036     2.498     2.472
    19   6 C        2.908    -0.028    28.702     8.785
    20   1 H        0.926     0.039     2.466     2.456
    21   6 C        2.919    -0.035    28.872     8.811
    22   1 H        0.926     0.038     2.474     2.460
    23   6 C        2.967     0.009    27.824     8.652
    24   6 C        3.008    -0.051    29.259     8.873
    25   6 C        3.067     0.080    26.158     8.386
    26   6 C        3.756    -0.112    22.701     6.793
    27   1 H        0.925     0.055     2.257     2.349
    28   1 H        0.925     0.055     2.255     2.348
    29   1 H        0.925     0.065     2.140     2.287
    30   7 N        1.993    -0.156    25.128     7.434
    31   8 O        1.807    -0.123    16.155     5.428
    32   6 C        3.136     0.125    25.045     8.191
    33   6 C        3.826     0.070    19.401     6.268
    34   1 H        0.923     0.044     2.398     2.422
    35   6 C        3.815    -0.097    22.340     6.727
    36   1 H        0.925     0.063     2.161     2.299
    37   1 H        0.925     0.067     2.121     2.278
    38   6 C        2.744     0.294    22.017     7.683
    39   8 O        0.858    -0.421    22.105     6.304
    40   7 N        2.640    -0.267    26.908     7.704
    41   1 H        0.860     0.192     1.145     1.676
    42   1 H        0.860     0.182     1.201     1.717

 Mol. C6AA /au·bohr⁶  :      25763.231909
 Mol. C8AA /au·bohr⁸  :     659093.208832
 Mol. α(0) /au        :        252.716324


Wiberg/Mayer (AO) data.
largest (>0.10) Wiberg bond orders for each atom

 ---------------------------------------------------------------------------
     #   Z sym  total        # sym  WBO       # sym  WBO       # sym  WBO
 ---------------------------------------------------------------------------
     1   6 C    3.990 --     3 C    1.454    11 C    1.382     2 H    0.962
                             7 C    0.101
     2   1 H    0.998 --     1 C    0.962
     3   6 C    3.988 --     1 C    1.454     5 C    1.396     4 H    0.967
                             9 C    0.105
     4   1 H    0.996 --     3 C    0.967
     5   6 C    3.913 --     3 C    1.396     7 C    1.390     6 Cl   0.982
     6  17 Cl   1.118 --     5 C    0.982
     7   6 C    3.986 --     9 C    1.457     5 C    1.390     8 H    0.967
                             1 C    0.101
     8   1 H    0.996 --     7 C    0.967
     9   6 C    3.985 --     7 C    1.457    11 C    1.374    10 H    0.965
                             3 C    0.105
    10   1 H    0.995 --     9 C    0.965
    11   6 C    3.988 --     1 C    1.382     9 C    1.374    12 C    1.040
    12   6 C    3.970 --    13 N    1.767    11 C    1.040    14 C    1.030
    13   7 N    3.070 --    12 C    1.767    33 C    0.996
    14   6 C    3.985 --    15 C    1.374    23 C    1.335    12 C    1.030
    15   6 C    3.990 --    17 C    1.469    14 C    1.374    16 H    0.967
                            21 C    0.104
    16   1 H    0.998 --    15 C    0.967
    17   6 C    3.982 --    15 C    1.469    19 C    1.396    18 H    0.972
    18   1 H    0.998 --    17 C    0.972
    19   6 C    3.990 --    21 C    1.479    17 C    1.396    20 H    0.971
    20   1 H    0.997 --    19 C    0.971
    21   6 C    3.991 --    19 C    1.479    23 C    1.364    22 H    0.968
                            15 C    0.104
    22   1 H    0.998 --    21 C    0.968
    23   6 C    3.987 --    21 C    1.364    14 C    1.335    24 C    1.082
    24   6 C    3.974 --    32 C    1.464    25 C    1.233    23 C    1.082
    25   6 C    3.970 --    30 N    1.575    24 C    1.233    26 C    1.027
    26   6 C    3.993 --    25 C    1.027    29 H    0.981    28 H    0.973
                            27 H    0.967
    27   1 H    0.997 --    26 C    0.967
    28   1 H    0.997 --    26 C    0.973
    29   1 H    0.995 --    26 C    0.981
    30   7 N    2.927 --    25 C    1.575    31 O    1.073    32 C    0.147
    31   8 O    2.452 --    32 C    1.173    30 N    1.073
    32   6 C    3.921 --    24 C    1.464    31 O    1.173    33 C    0.975
                            30 N    0.147
    33   6 C    3.986 --    13 N    0.996    35 C    0.995    32 C    0.975
                            34 H    0.936
    34   1 H    0.997 --    33 C    0.936
    35   6 C    3.995 --    33 C    0.995    37 H    0.965    36 H    0.958
                            38 C    0.952
    36   1 H    0.995 --    35 C    0.958
    37   1 H    0.995 --    35 C    0.965
    38   6 C    3.947 --    39 O    1.717    40 N    1.253    35 C    0.952
    39   8 O    2.022 --    38 C    1.717    40 N    0.198
    40   7 N    3.368 --    38 C    1.253    42 H    0.947    41 H    0.941
                            39 O    0.198
    41   1 H    0.962 --    40 N    0.941
    42   1 H    0.967 --    40 N    0.947
 ---------------------------------------------------------------------------

Topologies differ in total number of bonds
Writing topology from bond orders to xtbtopo.mol

molecular dipole:
                 x           y           z       tot (Debye)
 q only:        0.659       0.071       0.465
   full:        0.302       0.047       0.516       1.524
molecular quadrupole (traceless):
                xx          xy          yy          xz          yz          zz
 q only:       42.304     -17.751     -22.667     -12.552      -1.538     -19.637
  q+dip:       30.547     -15.883     -21.828     -11.966      -4.120      -8.719
   full:       28.268     -16.027     -17.996     -10.348      -6.101     -10.271


           -------------------------------------------------
          | TOTAL ENERGY              -72.406921477193 Eh   |
          | GRADIENT NORM               0.059489215265 Eh/α |
          | HOMO-LUMO GAP               2.554721047983 eV   |
           -------------------------------------------------

------------------------------------------------------------------------
 * finished run on 2022/10/11 at 01:30:51.286     
------------------------------------------------------------------------
 total:
 * wall-time:     0 d,  0 h,  0 min,  0.668 sec
 *  cpu-time:     0 d,  0 h,  0 min, 26.387 sec
 * ratio c/w:    39.508 speedup
 SCF:
 * wall-time:     0 d,  0 h,  0 min,  0.578 sec
 *  cpu-time:     0 d,  0 h,  0 min, 22.905 sec
 * ratio c/w:    39.627 speedup

