      -----------------------------------------------------------      
     |                   =====================                   |     
     |                           x T B                           |     
     |                   =====================                   |     
     |                         S. Grimme                         |     
     |          Mulliken Center for Theoretical Chemistry        |     
     |                    University of Bonn                     |     
      -----------------------------------------------------------      

   * xtb version 6.6.0 (2ccbbd7) compiled by 'conda@6fe65c42fc39' on 2023-02-10

   xtb is free software: you can redistribute it and/or modify it under
   the terms of the GNU Lesser General Public License as published by
   the Free Software Foundation, either version 3 of the License, or
   (at your option) any later version.
   
   xtb is distributed in the hope that it will be useful,
   but WITHOUT ANY WARRANTY; without even the implied warranty of
   MERCHANTABILITY or FITNESS FOR A PARTICULAR PURPOSE.  See the
   GNU Lesser General Public License for more details.
   
   Cite this work as:
   * C. Bannwarth, E. Caldeweyher, S. Ehlert, A. Hansen, P. Pracht,
     J. Seibert, S. Spicher, S. Grimme, WIREs Comput. Mol. Sci., 2020, 11,
     e01493. DOI: 10.1002/wcms.1493
   
   for GFN2-xTB:
   * C. Bannwarth, S. Ehlert and S. Grimme., J. Chem. Theory Comput., 2019,
     15, 1652-1671. DOI: 10.1021/acs.jctc.8b01176
   for GFN1-xTB:
   * S. Grimme, C. Bannwarth, P. Shushkov, J. Chem. Theory Comput., 2017,
     13, 1989-2009. DOI: 10.1021/acs.jctc.7b00118
   for GFN0-xTB:
   * P. Pracht, E. Caldeweyher, S. Ehlert, S. Grimme, ChemRxiv, 2019, preprint.
     DOI: 10.26434/chemrxiv.8326202.v1
   for GFN-FF:
   * S. Spicher and S. Grimme, Angew. Chem. Int. Ed., 2020, 59, 15665-15673.
     DOI: 10.1002/anie.202004239
   
   for ALPB and GBSA implicit solvation:
   * S. Ehlert, M. Stahn, S. Spicher, S. Grimme, J. Chem. Theory Comput.,
     2021, 17, 4250-4261. DOI: 10.1021/acs.jctc.1c00471
   
   for DFT-D4:
   * E. Caldeweyher, C. Bannwarth and S. Grimme, J. Chem. Phys., 2017,
     147, 034112. DOI: 10.1063/1.4993215
   * E. Caldeweyher, S. Ehlert, A. Hansen, H. Neugebauer, S. Spicher,
     C. Bannwarth and S. Grimme, J. Chem. Phys., 2019, 150, 154122.
     DOI: 10.1063/1.5090222
   * E. Caldeweyher, J.-M. Mewes, S. Ehlert and S. Grimme, Phys. Chem. Chem. Phys.
     2020, 22, 8499-8512. DOI: 10.1039/D0CP00502A
   
   for sTDA-xTB:
   * S. Grimme and C. Bannwarth, J. Chem. Phys., 2016, 145, 054103.
     DOI: 10.1063/1.4959605
   
   in the mass-spec context:
   * V. Asgeirsson, C. Bauer and S. Grimme, Chem. Sci., 2017, 8, 4879.
     DOI: 10.1039/c7sc00601b
   * J. Koopman and S. Grimme, ACS Omega 2019, 4, 12, 15120-15133.
     DOI: 10.1021/acsomega.9b02011
   
   for metadynamics refer to:
   * S. Grimme, J. Chem. Theory Comput., 2019, 155, 2847-2862
     DOI: 10.1021/acs.jctc.9b00143
   
   for SPH calculations refer to:
   * S. Spicher and S. Grimme, J. Chem. Theory Comput., 2021, 17, 1701-1714
     DOI: 10.1021/acs.jctc.0c01306
   
   with help from (in alphabetical order)
   P. Atkinson, C. Bannwarth, F. Bohle, G. Brandenburg, E. Caldeweyher
   M. Checinski, S. Dohm, S. Ehlert, S. Ehrlich, I. Gerasimov, C. Hölzer
   A. Katbashev, J. Koopman, C. Lavigne, S. Lehtola, F. März, M. Müller,
   F. Musil, H. Neugebauer, J. Pisarek, C. Plett, P. Pracht, F. Pultar,
   J. Seibert, P. Shushkov, S. Spicher, M. Stahn, M. Steiner, T. Strunk,
   J. Stückrath, T. Rose, and J. Unsleber
   
 * started run on 2023/12/27 at 13:38:39.209     

           -------------------------------------------------
          |                Calculation Setup                |
           -------------------------------------------------

          program call               : xtb gau_xtb.xyz --chrg 1 --uhf 0 --grad
          hostname                   : node33
          coordinate file            : gau_xtb.xyz
          omp threads                :                    12

   ID    Z sym.   atoms
    1    6 C      1-25
    2    7 N      26-28
    3    1 H      29-58

           -------------------------------------------------
          |                 G F N 2 - x T B                 |
           -------------------------------------------------

        Reference                      10.1021/acs.jctc.8b01176
      * Hamiltonian:
        H0-scaling (s, p, d)           1.850000    2.230000    2.230000
        zeta-weighting                 0.500000
      * Dispersion:
        s8                             2.700000
        a1                             0.520000
        a2                             5.000000
        s9                             5.000000
      * Repulsion:
        kExp                           1.500000    1.000000
        rExp                           1.000000
      * Coulomb:
        alpha                          2.000000
        third order                    shell-resolved
        anisotropic                    true
        a3                             3.000000
        a5                             4.000000
        cn-shift                       1.200000
        cn-exp                         4.000000
        max-rad                        5.000000


          ...................................................
          :                      SETUP                      :
          :.................................................:
          :  # basis functions                 142          :
          :  # atomic orbitals                 142          :
          :  # shells                           86          :
          :  # electrons                       144          :
          :  max. iterations                   250          :
          :  Hamiltonian                  GFN2-xTB          :
          :  restarted?                      false          :
          :  GBSA solvation                  false          :
          :  PC potential                    false          :
          :  electronic temp.          300.0000000     K    :
          :  accuracy                    1.0000000          :
          :  -> integral cutoff          0.2500000E+02      :
          :  -> integral neglect         0.1000000E-07      :
          :  -> SCF convergence          0.1000000E-05 Eh   :
          :  -> wf. convergence          0.1000000E-03 e    :
          :  Broyden damping             0.4000000          :
          ...................................................

 iter      E             dE          RMSdq      gap      omega  full diag
   1    -78.3346539 -0.783347E+02  0.353E+00    1.13       0.0  T
   2    -78.4160091 -0.813552E-01  0.255E+00    1.55       1.0  T
   3    -78.3350649  0.809442E-01  0.136E+00    0.91       1.0  T
   4    -78.3692512 -0.341863E-01  0.103E+00    1.69       1.0  T
   5    -78.4673864 -0.981352E-01  0.154E-01    1.27       1.0  T
   6    -78.4678670 -0.480513E-03  0.546E-02    1.27       1.0  T
   7    -78.4678779 -0.109574E-04  0.294E-02    1.27       1.0  T
   8    -78.4678961 -0.182094E-04  0.730E-03    1.27       1.8  T
   9    -78.4678989 -0.279725E-05  0.257E-03    1.27       5.1  T
  10    -78.4678991 -0.176274E-06  0.794E-04    1.27      16.5  T
  11    -78.4678991 -0.245597E-07  0.357E-04    1.27      36.8  T

   *** convergence criteria satisfied after 11 iterations ***

         #    Occupation            Energy/Eh            Energy/eV
      -------------------------------------------------------------
         1        2.0000           -0.7529887             -20.4899
       ...           ...                  ...                  ...
        66        2.0000           -0.5055942             -13.7579
        67        2.0000           -0.4984018             -13.5622
        68        2.0000           -0.4957011             -13.4887
        69        2.0000           -0.4943216             -13.4512
        70        2.0000           -0.4705716             -12.8049
        71        2.0000           -0.4451368             -12.1128
        72        2.0000           -0.4437385             -12.0747 (HOMO)
        73                         -0.3971242             -10.8063 (LUMO)
        74                         -0.3172593              -8.6331
        75                         -0.3141076              -8.5473
        76                         -0.3133444              -8.5265
        77                         -0.3116177              -8.4795
       ...                                ...                  ...
       142                          0.5564882              15.1428
      -------------------------------------------------------------
                  HL-Gap            0.0466143 Eh            1.2684 eV
             Fermi-level           -0.4203335 Eh          -11.4379 eV

 SCC (total)                   0 d,  0 h,  0 min,  0.384 sec
 SCC setup                      ...        0 min,  0.008 sec (  2.168%)
 Dispersion                     ...        0 min,  0.017 sec (  4.420%)
 classical contributions        ...        0 min,  0.007 sec (  1.778%)
 integral evaluation            ...        0 min,  0.018 sec (  4.726%)
 iterations                     ...        0 min,  0.282 sec ( 73.385%)
 molecular gradient             ...        0 min,  0.051 sec ( 13.301%)
 printout                       ...        0 min,  0.001 sec (  0.169%)

         :::::::::::::::::::::::::::::::::::::::::::::::::::::
         ::                     SUMMARY                     ::
         :::::::::::::::::::::::::::::::::::::::::::::::::::::
         :: total energy             -77.223285841491 Eh    ::
         :: gradient norm              0.051716859113 Eh/a0 ::
         :: HOMO-LUMO gap              1.268438901689 eV    ::
         ::.................................................::
         :: SCC energy               -78.467899119003 Eh    ::
         :: -> isotropic ES            0.051072700737 Eh    ::
         :: -> anisotropic ES         -0.002159462255 Eh    ::
         :: -> anisotropic XC          0.049232348051 Eh    ::
         :: -> dispersion             -0.061824452872 Eh    ::
         :: repulsion energy           1.244953197127 Eh    ::
         :: add. restraining           0.000000000000 Eh    ::
         :: total charge               1.000000000010 e     ::
         :::::::::::::::::::::::::::::::::::::::::::::::::::::

           -------------------------------------------------
          |                Property Printout                |
           -------------------------------------------------

    * Orbital Energies and Occupations

         #    Occupation            Energy/Eh            Energy/eV
      -------------------------------------------------------------
         1        2.0000           -0.7529887             -20.4899
       ...           ...                  ...                  ...
        60        2.0000           -0.5299405             -14.4204
        61        2.0000           -0.5297585             -14.4155
        62        2.0000           -0.5183914             -14.1061
        63        2.0000           -0.5169198             -14.0661
        64        2.0000           -0.5117278             -13.9248
        65        2.0000           -0.5071601             -13.8005
        66        2.0000           -0.5055942             -13.7579
        67        2.0000           -0.4984018             -13.5622
        68        2.0000           -0.4957011             -13.4887
        69        2.0000           -0.4943216             -13.4512
        70        2.0000           -0.4705716             -12.8049
        71        2.0000           -0.4451368             -12.1128
        72        2.0000           -0.4437385             -12.0747 (HOMO)
        73                         -0.3971242             -10.8063 (LUMO)
        74                         -0.3172593              -8.6331
        75                         -0.3141076              -8.5473
        76                         -0.3133444              -8.5265
        77                         -0.3116177              -8.4795
        78                         -0.3114112              -8.4739
        79                         -0.2656437              -7.2285
        80                         -0.1957028              -5.3253
        81                         -0.1938054              -5.2737
        82                         -0.1657455              -4.5102
        83                         -0.1173100              -3.1922
       ...                                ...                  ...
       142                          0.5564882              15.1428
      -------------------------------------------------------------
                  HL-Gap            0.0466143 Eh            1.2684 eV
             Fermi-level           -0.4203335 Eh          -11.4379 eV

     #   Z          covCN         q      C6AA      α(0)
     1   6 C        2.961     0.029    27.361     8.580
     2   6 C        2.962     0.001    27.998     8.679
     3   6 C        2.911    -0.025    28.637     8.775
     4   6 C        2.908    -0.056    29.393     8.890
     5   6 C        2.905     0.074    26.349     8.417
     6   6 C        2.907    -0.056    29.389     8.889
     7   6 C        2.913    -0.024    28.609     8.771
     8   6 C        2.969     0.001    27.999     8.679
     9   6 C        2.914    -0.025    28.633     8.775
    10   6 C        2.911    -0.059    29.473     8.902
    11   6 C        2.904     0.073    26.365     8.419
    12   6 C        2.907    -0.056    29.403     8.891
    13   6 C        2.910    -0.024    28.606     8.770
    14   6 C        2.960    -0.001    28.040     8.685
    15   6 C        2.911    -0.024    28.608     8.771
    16   6 C        2.904    -0.057    29.424     8.894
    17   6 C        2.905     0.073    26.366     8.419
    18   6 C        2.904    -0.056    29.399     8.891
    19   6 C        2.908    -0.025    28.620     8.772
    20   6 C        3.690    -0.058    21.811     6.684
    21   6 C        3.691    -0.057    21.791     6.680
    22   6 C        3.694    -0.060    21.832     6.685
    23   6 C        3.693    -0.060    21.847     6.688
    24   6 C        3.692    -0.058    21.805     6.682
    25   6 C        3.690    -0.059    21.838     6.688
    26   7 N        2.731    -0.045    22.116     6.985
    27   7 N        2.732    -0.045    22.105     6.983
    28   7 N        2.731    -0.043    22.065     6.977
    29   1 H        0.924     0.062     2.175     2.306
    30   1 H        0.924     0.066     2.130     2.283
    31   1 H        0.924     0.069     2.091     2.262
    32   1 H        0.923     0.062     2.170     2.304
    33   1 H        0.924     0.064     2.153     2.295
    34   1 H        0.925     0.069     2.096     2.264
    35   1 H        0.924     0.063     2.169     2.303
    36   1 H        0.925     0.069     2.098     2.265
    37   1 H        0.924     0.066     2.129     2.282
    38   1 H        0.924     0.059     2.214     2.327
    39   1 H        0.924     0.067     2.121     2.278
    40   1 H        0.924     0.067     2.120     2.277
    41   1 H        0.924     0.066     2.130     2.282
    42   1 H        0.923     0.060     2.202     2.321
    43   1 H        0.925     0.069     2.102     2.267
    44   1 H        0.924     0.064     2.156     2.296
    45   1 H        0.924     0.063     2.160     2.298
    46   1 H        0.925     0.069     2.095     2.263
    47   1 H        0.925     0.045     2.377     2.411
    48   1 H        0.925     0.048     2.341     2.393
    49   1 H        0.925     0.048     2.348     2.396
    50   1 H        0.925     0.043     2.411     2.428
    51   1 H        0.925     0.043     2.414     2.430
    52   1 H        0.925     0.046     2.377     2.411
    53   1 H        0.926     0.047     2.361     2.403
    54   1 H        0.925     0.043     2.407     2.426
    55   1 H        0.925     0.046     2.368     2.407
    56   1 H        0.925     0.047     2.357     2.401
    57   1 H        0.925     0.048     2.350     2.397
    58   1 H        0.925     0.047     2.359     2.402

 Mol. C6AA /au·bohr⁶  :      35300.656494
 Mol. C8AA /au·bohr⁸  :     838605.272235
 Mol. α(0) /au        :        296.996915


Wiberg/Mayer (AO) data.
largest (>0.10) Wiberg bond orders for each atom

 ---------------------------------------------------------------------------
     #   Z sym  total        # sym  WBO       # sym  WBO       # sym  WBO
 ---------------------------------------------------------------------------
     1   6 C    3.871 --     2 C    1.220    14 C    1.212     8 C    1.187
     2   6 C    3.976 --     3 C    1.281     7 C    1.277     1 C    1.220
     3   6 C    3.971 --     4 C    1.552     2 C    1.281    58 H    0.964
     4   6 C    3.972 --     3 C    1.552     5 C    1.265    57 H    0.964
     5   6 C    3.944 --     4 C    1.265     6 C    1.265    26 N    1.257
     6   6 C    3.971 --     7 C    1.554     5 C    1.265    56 H    0.965
     7   6 C    3.970 --     6 C    1.554     2 C    1.277    55 H    0.964
     8   6 C    3.972 --    13 C    1.291     9 C    1.288     1 C    1.187
     9   6 C    3.971 --    10 C    1.544     8 C    1.288    54 H    0.966
    10   6 C    3.972 --     9 C    1.544    11 C    1.265    53 H    0.961
    11   6 C    3.949 --    10 C    1.265    12 C    1.263    27 N    1.259
    12   6 C    3.970 --    13 C    1.545    11 C    1.263    52 H    0.963
    13   6 C    3.972 --    12 C    1.545     8 C    1.291    51 H    0.967
    14   6 C    3.972 --    19 C    1.281    15 C    1.277     1 C    1.212
    15   6 C    3.971 --    16 C    1.558    14 C    1.277    50 H    0.966
    16   6 C    3.972 --    15 C    1.558    17 C    1.257    49 H    0.964
    17   6 C    3.945 --    28 N    1.266    18 C    1.262    16 C    1.257
    18   6 C    3.971 --    19 C    1.553    17 C    1.262    48 H    0.964
    19   6 C    3.967 --    18 C    1.553    14 C    1.281    47 H    0.966
    20   6 C    3.965 --    26 N    1.001    46 H    0.979    45 H    0.974
                            44 H    0.971
    21   6 C    3.966 --    26 N    1.002    43 H    0.979    42 H    0.972
                            41 H    0.971
    22   6 C    3.966 --    27 N    1.002    40 H    0.977    39 H    0.975
                            38 H    0.971
    23   6 C    3.965 --    27 N    1.001    37 H    0.975    36 H    0.973
                            35 H    0.972
    24   6 C    3.966 --    28 N    1.003    34 H    0.978    33 H    0.973
                            32 H    0.970
    25   6 C    3.965 --    28 N    0.998    31 H    0.979    30 H    0.975
                            29 H    0.971
    26   7 N    3.439 --     5 C    1.257    21 C    1.002    20 C    1.001
    27   7 N    3.444 --    11 C    1.259    22 C    1.002    23 C    1.001
    28   7 N    3.447 --    17 C    1.266    24 C    1.003    25 C    0.998
    29   1 H    0.989 --    25 C    0.971
    30   1 H    0.994 --    25 C    0.975
    31   1 H    0.994 --    25 C    0.979
    32   1 H    0.990 --    24 C    0.970
    33   1 H    0.993 --    24 C    0.973
    34   1 H    0.994 --    24 C    0.978
    35   1 H    0.989 --    23 C    0.972
    36   1 H    0.995 --    23 C    0.973
    37   1 H    0.991 --    23 C    0.975
    38   1 H    0.989 --    22 C    0.971
    39   1 H    0.995 --    22 C    0.975
    40   1 H    0.992 --    22 C    0.977
    41   1 H    0.992 --    21 C    0.971
    42   1 H    0.991 --    21 C    0.972
    43   1 H    0.995 --    21 C    0.979
    44   1 H    0.991 --    20 C    0.971
    45   1 H    0.992 --    20 C    0.974
    46   1 H    0.995 --    20 C    0.979
    47   1 H    0.997 --    19 C    0.966
    48   1 H    0.997 --    18 C    0.964
    49   1 H    0.997 --    16 C    0.964
    50   1 H    0.997 --    15 C    0.966
    51   1 H    0.997 --    13 C    0.967
    52   1 H    0.997 --    12 C    0.963
    53   1 H    0.997 --    10 C    0.961
    54   1 H    0.997 --     9 C    0.966
    55   1 H    0.997 --     7 C    0.964
    56   1 H    0.997 --     6 C    0.965
    57   1 H    0.997 --     4 C    0.964
    58   1 H    0.997 --     3 C    0.964
 ---------------------------------------------------------------------------

Topologies differ in total number of bonds
Writing topology from bond orders to xtbtopo.mol

molecular dipole:
                 x           y           z       tot (Debye)
 q only:       19.739     -56.802     -57.759
   full:       19.711     -56.813     -57.754     211.923
molecular quadrupole (traceless):
                xx          xy          yy          xz          yz          zz
 q only:    -2918.480   -1697.197    1388.608   -1660.116    4933.557    1529.872
  q+dip:    -2922.079   -1696.021    1393.435   -1654.549    4935.089    1528.644
   full:    -2920.918   -1695.204    1391.558   -1657.046    4934.210    1529.359


           -------------------------------------------------
          | TOTAL ENERGY              -77.223285841491 Eh   |
          | GRADIENT NORM               0.051716859113 Eh/α |
          | HOMO-LUMO GAP               1.268438901689 eV   |
           -------------------------------------------------

------------------------------------------------------------------------
 * finished run on 2023/12/27 at 13:38:39.743     
------------------------------------------------------------------------
 total:
 * wall-time:     0 d,  0 h,  0 min,  0.533 sec
 *  cpu-time:     0 d,  0 h,  0 min,  6.717 sec
 * ratio c/w:    12.594 speedup
 SCF:
 * wall-time:     0 d,  0 h,  0 min,  0.385 sec
 *  cpu-time:     0 d,  0 h,  0 min,  5.190 sec
 * ratio c/w:    13.491 speedup

