      -----------------------------------------------------------      
     |                   =====================                   |     
     |                           x T B                           |     
     |                   =====================                   |     
     |                         S. Grimme                         |     
     |          Mulliken Center for Theoretical Chemistry        |     
     |                    University of Bonn                     |     
      -----------------------------------------------------------      

   * xtb version 6.6.0 (2ccbbd7) compiled by 'conda@6fe65c42fc39' on 2023-02-10

   xtb is free software: you can redistribute it and/or modify it under
   the terms of the GNU Lesser General Public License as published by
   the Free Software Foundation, either version 3 of the License, or
   (at your option) any later version.
   
   xtb is distributed in the hope that it will be useful,
   but WITHOUT ANY WARRANTY; without even the implied warranty of
   MERCHANTABILITY or FITNESS FOR A PARTICULAR PURPOSE.  See the
   GNU Lesser General Public License for more details.
   
   Cite this work as:
   * C. Bannwarth, E. Caldeweyher, S. Ehlert, A. Hansen, P. Pracht,
     J. Seibert, S. Spicher, S. Grimme, WIREs Comput. Mol. Sci., 2020, 11,
     e01493. DOI: 10.1002/wcms.1493
   
   for GFN2-xTB:
   * C. Bannwarth, S. Ehlert and S. Grimme., J. Chem. Theory Comput., 2019,
     15, 1652-1671. DOI: 10.1021/acs.jctc.8b01176
   for GFN1-xTB:
   * S. Grimme, C. Bannwarth, P. Shushkov, J. Chem. Theory Comput., 2017,
     13, 1989-2009. DOI: 10.1021/acs.jctc.7b00118
   for GFN0-xTB:
   * P. Pracht, E. Caldeweyher, S. Ehlert, S. Grimme, ChemRxiv, 2019, preprint.
     DOI: 10.26434/chemrxiv.8326202.v1
   for GFN-FF:
   * S. Spicher and S. Grimme, Angew. Chem. Int. Ed., 2020, 59, 15665-15673.
     DOI: 10.1002/anie.202004239
   
   for ALPB and GBSA implicit solvation:
   * S. Ehlert, M. Stahn, S. Spicher, S. Grimme, J. Chem. Theory Comput.,
     2021, 17, 4250-4261. DOI: 10.1021/acs.jctc.1c00471
   
   for DFT-D4:
   * E. Caldeweyher, C. Bannwarth and S. Grimme, J. Chem. Phys., 2017,
     147, 034112. DOI: 10.1063/1.4993215
   * E. Caldeweyher, S. Ehlert, A. Hansen, H. Neugebauer, S. Spicher,
     C. Bannwarth and S. Grimme, J. Chem. Phys., 2019, 150, 154122.
     DOI: 10.1063/1.5090222
   * E. Caldeweyher, J.-M. Mewes, S. Ehlert and S. Grimme, Phys. Chem. Chem. Phys.
     2020, 22, 8499-8512. DOI: 10.1039/D0CP00502A
   
   for sTDA-xTB:
   * S. Grimme and C. Bannwarth, J. Chem. Phys., 2016, 145, 054103.
     DOI: 10.1063/1.4959605
   
   in the mass-spec context:
   * V. Asgeirsson, C. Bauer and S. Grimme, Chem. Sci., 2017, 8, 4879.
     DOI: 10.1039/c7sc00601b
   * J. Koopman and S. Grimme, ACS Omega 2019, 4, 12, 15120-15133.
     DOI: 10.1021/acsomega.9b02011
   
   for metadynamics refer to:
   * S. Grimme, J. Chem. Theory Comput., 2019, 155, 2847-2862
     DOI: 10.1021/acs.jctc.9b00143
   
   for SPH calculations refer to:
   * S. Spicher and S. Grimme, J. Chem. Theory Comput., 2021, 17, 1701-1714
     DOI: 10.1021/acs.jctc.0c01306
   
   with help from (in alphabetical order)
   P. Atkinson, C. Bannwarth, F. Bohle, G. Brandenburg, E. Caldeweyher
   M. Checinski, S. Dohm, S. Ehlert, S. Ehrlich, I. Gerasimov, C. Hölzer
   A. Katbashev, J. Koopman, C. Lavigne, S. Lehtola, F. März, M. Müller,
   F. Musil, H. Neugebauer, J. Pisarek, C. Plett, P. Pracht, F. Pultar,
   J. Seibert, P. Shushkov, S. Spicher, M. Stahn, M. Steiner, T. Strunk,
   J. Stückrath, T. Rose, and J. Unsleber
   
 * started run on 2024/01/10 at 00:31:38.561     

           -------------------------------------------------
          |                Calculation Setup                |
           -------------------------------------------------

          program call               : xtb gau_xtb.xyz --chrg 0 --uhf 0 --grad
          hostname                   : node39
          coordinate file            : gau_xtb.xyz
          omp threads                :                    12

   ID    Z sym.   atoms
    1    1 H      1, 8-14, 27-37, 43-49, 54-58, 66-76, 88-96, 106-114,
                  122-130, 135-137, 146-156, 164-170, 179-186, 197-205,
                  230-244, 246, 247, 249, 250
    2    7 N      2, 15, 38, 50, 59, 77, 97, 115, 131, 138, 157, 171, 178,
                  187, 193, 196, 214, 220, 222, 227
    3    6 C      3, 4, 6, 16, 17, 19-25, 39, 40, 42, 51, 52, 60, 61, 63-65,
                  78, 79, 81-87, 98, 99, 101-103, 116, 117, 119-121, 132,
                  133, 139, 140, 142, 143, 145, 158, 159, 161, 163, 172, 173,
                  175, 176, 188, 189, 191, 192, 194, 195, 211, 213, 215, 217,
                  219, 221, 223-225, 228, 229
    4    8 O      5, 7, 18, 26, 41, 53, 62, 80, 100, 104, 105, 118, 134, 141,
                  160, 162, 174, 177, 190, 207-210, 212, 216, 218, 226, 245,
                  248
    5   16 S      144, 206

molecular fragmentation (1/2 indicates fragments):
111111111111122222222222222222222222222222222222222222222222222222222222
222222222222222222222222222222222222222222222222222222222222222222222222
222222222222222222222222222222222222222222222222222222222222222222222222
2222222222222222222222222222222222
# atoms in fragment 1/2:    13   237
 fragment masses (1/2) :       89.09     1722.94
CMA distance (Bohr)    :  17.347
constraining FC (au)   :  0.0500

           -------------------------------------------------
          |                 G F N 2 - x T B                 |
           -------------------------------------------------

        Reference                      10.1021/acs.jctc.8b01176
      * Hamiltonian:
        H0-scaling (s, p, d)           1.850000    2.230000    2.230000
        zeta-weighting                 0.500000
      * Dispersion:
        s8                             2.700000
        a1                             0.520000
        a2                             5.000000
        s9                             5.000000
      * Repulsion:
        kExp                           1.500000    1.000000
        rExp                           1.000000
      * Coulomb:
        alpha                          2.000000
        third order                    shell-resolved
        anisotropic                    true
        a3                             3.000000
        a5                             4.000000
        cn-shift                       1.200000
        cn-exp                         4.000000
        max-rad                        5.000000


          ...................................................
          :                      SETUP                      :
          :.................................................:
          :  # basis functions                 634          :
          :  # atomic orbitals                 632          :
          :  # shells                          376          :
          :  # electrons                       704          :
          :  max. iterations                   250          :
          :  Hamiltonian                  GFN2-xTB          :
          :  restarted?                      false          :
          :  GBSA solvation                  false          :
          :  PC potential                    false          :
          :  electronic temp.          300.0000000     K    :
          :  accuracy                    1.0000000          :
          :  -> integral cutoff          0.2500000E+02      :
          :  -> integral neglect         0.1000000E-07      :
          :  -> SCF convergence          0.1000000E-05 Eh   :
          :  -> wf. convergence          0.1000000E-03 e    :
          :  Broyden damping             0.4000000          :
          ...................................................

 iter      E             dE          RMSdq      gap      omega  full diag
   1   -406.5380110 -0.406538E+03  0.470E+00    1.88       0.0  T
   2   -407.5222891 -0.984278E+00  0.253E+00    0.16       1.0  T
   3   -400.0529422  0.746935E+01  0.335E+00    0.10       1.0  T
   4   -407.4097843 -0.735684E+01  0.157E+00    0.56       1.0  T
   5   -407.2917384  0.118046E+00  0.994E-01    0.03       1.0  T
   6   -407.5360845 -0.244346E+00  0.745E-01    0.40       1.0  T
   7   -407.5724195 -0.363350E-01  0.595E-01    0.40       1.0  T
   8   -407.5884633 -0.160438E-01  0.521E-01    0.41       1.0  T
   9   -407.6038772 -0.154138E-01  0.432E-01    0.41       1.0  T
  10   -407.5946309  0.924632E-02  0.410E-01    0.09       1.0  T
  11   -407.6216292 -0.269984E-01  0.314E-01    0.18       1.0  T
  12   -406.5440071  0.107762E+01  0.158E+00    0.10       1.0  T
  13   -406.4532345  0.907726E-01  0.163E+00    0.11       1.0  T
  14   -406.4829049 -0.296704E-01  0.161E+00    0.11       1.0  T
  15   -406.4772033  0.570156E-02  0.162E+00    0.11       1.0  T
  16   -406.4048083  0.723950E-01  0.165E+00    0.10       1.0  T
  17   -406.5057240 -0.100916E+00  0.161E+00    0.11       1.0  T
  18   -406.5291855 -0.234615E-01  0.160E+00    0.10       1.0  T
  19   -406.5289323  0.253170E-03  0.161E+00    0.11       1.0  T
  20   -406.5234109  0.552140E-02  0.162E+00    0.10       1.0  T
  21   -406.5211399  0.227105E-02  0.162E+00    0.10       1.0  T
  22   -406.5190187  0.212115E-02  0.163E+00    0.10       1.0  T
  23   -406.5200238 -0.100506E-02  0.163E+00    0.10       1.0  T
  24   -406.9730456 -0.453022E+00  0.122E+00    0.03       1.0  T
  25   -405.6850606  0.128798E+01  0.198E+00    0.00       1.0  T
  26   -406.4848742 -0.799814E+00  0.166E+00    0.11       1.0  T
  27   -406.5502129 -0.653387E-01  0.157E+00    0.10       1.0  T
  28   -407.5268656 -0.976653E+00  0.588E-01    0.02       1.0  T
  29   -406.5277326  0.999133E+00  0.159E+00    0.10       1.0  T
  30   -407.4593622 -0.931630E+00  0.704E-01    0.01       1.0  T
  31   -407.6423779 -0.183016E+00  0.238E-01    0.17       1.0  T
  32   -407.2587578  0.383620E+00  0.902E-01    0.00       1.0  T
  33   -407.6530860 -0.394328E+00  0.205E-01    0.13       1.0  T
  34   -407.6495894  0.349663E-02  0.221E-01    0.14       1.0  T
  35   -407.6505124 -0.922997E-03  0.217E-01    0.14       1.0  T
  36   -407.6491055  0.140684E-02  0.223E-01    0.14       1.0  T
  37   -407.6454624  0.364311E-02  0.239E-01    0.14       1.0  T
  38   -407.6459821 -0.519653E-03  0.236E-01    0.14       1.0  T
  39   -407.6472230 -0.124095E-02  0.231E-01    0.14       1.0  T
  40   -407.6415709  0.565212E-02  0.258E-01    0.12       1.0  T
  41   -407.6410873  0.483585E-03  0.260E-01    0.12       1.0  T
  42   -407.6576776 -0.165903E-01  0.196E-01    0.11       1.0  T
  43   -407.6560593  0.161839E-02  0.204E-01    0.12       1.0  T
  44   -407.6293890  0.266703E-01  0.302E-01    0.09       1.0  T
  45   -407.6593409 -0.299519E-01  0.200E-01    0.10       1.0  T
  46   -407.6428385  0.165024E-01  0.261E-01    0.11       1.0  T
  47   -407.6427960  0.425742E-04  0.261E-01    0.11       1.0  T
  48   -407.6374283  0.536768E-02  0.280E-01    0.10       1.0  T
  49   -407.6157622  0.216661E-01  0.344E-01    0.07       1.0  T
  50   -407.6219032 -0.614099E-02  0.328E-01    0.08       1.0  T
  51   -407.6266894 -0.478621E-02  0.316E-01    0.08       1.0  T
  52   -407.6018927  0.247967E-01  0.380E-01    0.06       1.0  T
  53   -407.5964730  0.541974E-02  0.393E-01    0.06       1.0  T
  54   -407.5907720  0.570094E-02  0.407E-01    0.06       1.0  T
  55   -407.5619846  0.287874E-01  0.468E-01    0.04       1.0  T
  56   -407.5654620 -0.347739E-02  0.461E-01    0.05       1.0  T
  57   -407.5906975 -0.252355E-01  0.407E-01    0.06       1.0  T
  58   -407.5860774  0.462005E-02  0.419E-01    0.05       1.0  T
  59   -407.6075437 -0.214662E-01  0.368E-01    0.06       1.0  T
  60   -407.6197503 -0.122066E-01  0.338E-01    0.07       1.0  T
  61   -407.6297302 -0.997986E-02  0.310E-01    0.08       1.0  T
  62   -407.6502407 -0.205105E-01  0.243E-01    0.09       1.0  T
  63   -407.6570582 -0.681744E-02  0.215E-01    0.09       1.0  T
  64   -407.6612043 -0.414610E-02  0.195E-01    0.10       1.0  T
  65   -407.6629039 -0.169968E-02  0.184E-01    0.10       1.0  T
  66   -407.6640208 -0.111685E-02  0.173E-01    0.10       1.0  T
  67   -407.6651829 -0.116213E-02  0.159E-01    0.10       1.0  T
  68   -407.6666763 -0.149334E-02  0.140E-01    0.09       1.0  T
  69   -407.6678198 -0.114355E-02  0.123E-01    0.09       1.0  T
  70   -407.6686978 -0.877947E-03  0.108E-01    0.09       1.0  T
  71   -407.6699185 -0.122069E-02  0.898E-02    0.09       1.0  T
  72   -407.6698537  0.647562E-04  0.882E-02    0.09       1.0  T
  73   -407.6720457 -0.219198E-02  0.566E-02    0.08       1.0  T
  74   -407.6717670  0.278708E-03  0.553E-02    0.08       1.0  T
  75   -407.6659721  0.579488E-02  0.132E-01    0.08       1.0  T
  76   -407.6692371 -0.326499E-02  0.963E-02    0.09       1.0  T
  77   -407.6711141 -0.187700E-02  0.689E-02    0.08       1.0  T
  78   -407.6686026  0.251149E-02  0.105E-01    0.08       1.0  T
  79   -407.6700338 -0.143116E-02  0.840E-02    0.09       1.0  T
  80   -407.6724879 -0.245418E-02  0.401E-02    0.08       1.0  T
  81   -407.6720232  0.464699E-03  0.491E-02    0.08       1.0  T
  82   -407.6712374  0.785783E-03  0.691E-02    0.08       1.0  T
  83   -407.6709153  0.322097E-03  0.686E-02    0.08       1.0  T
  84   -407.6717943 -0.878904E-03  0.578E-02    0.08       1.0  T
  85   -407.6713820  0.412240E-03  0.609E-02    0.08       1.0  T
  86   -407.6719079 -0.525912E-03  0.549E-02    0.08       1.0  T
  87   -407.6716630  0.244909E-03  0.553E-02    0.08       1.0  T
  88   -407.6723383 -0.675302E-03  0.439E-02    0.08       1.0  T
  89   -407.6721067  0.231625E-03  0.458E-02    0.08       1.0  T
  90   -407.6725557 -0.449008E-03  0.366E-02    0.08       1.0  T
  91   -407.6723953  0.160386E-03  0.384E-02    0.08       1.0  T
  92   -407.6726763 -0.281027E-03  0.314E-02    0.08       1.0  T
  93   -407.6725776  0.987125E-04  0.329E-02    0.08       1.0  T
  94   -407.6727256 -0.148009E-03  0.285E-02    0.08       1.0  T
  95   -407.6726703  0.553630E-04  0.295E-02    0.08       1.0  T
  96   -407.6727547 -0.844360E-04  0.264E-02    0.08       1.0  T
  97   -407.6727256  0.290912E-04  0.267E-02    0.08       1.0  T
  98   -407.6728145 -0.888674E-04  0.224E-02    0.08       1.0  T
  99   -407.6728050  0.953583E-05  0.214E-02    0.08       1.0  T
 100   -407.6729086 -0.103622E-03  0.136E-02    0.08       1.0  T
 101   -407.6728632  0.453372E-04  0.165E-02    0.08       1.0  T
 102   -407.6728981 -0.348846E-04  0.135E-02    0.08       1.0  T
 103   -407.6728642  0.339503E-04  0.162E-02    0.08       1.0  T
 104   -407.6729068 -0.425948E-04  0.124E-02    0.08       1.0  T
 105   -407.6728998  0.697149E-05  0.131E-02    0.08       1.0  T
 106   -407.6729215 -0.217190E-04  0.106E-02    0.08       1.0  T
 107   -407.6729213  0.182903E-06  0.107E-02    0.08       1.0  T
 108   -407.6729330 -0.116670E-04  0.907E-03    0.08       1.0  T
 109   -407.6729350 -0.198406E-05  0.881E-03    0.08       1.0  T
 110   -407.6729421 -0.708461E-05  0.754E-03    0.08       1.0  T
 111   -407.6729432 -0.110455E-05  0.737E-03    0.08       1.0  T
 112   -407.6729429  0.225178E-06  0.694E-03    0.08       1.0  T
 113   -407.6729425  0.399373E-06  0.693E-03    0.08       1.0  T
 114   -407.6729422  0.313223E-06  0.691E-03    0.08       1.0  T
 115   -407.6729405  0.176781E-05  0.700E-03    0.08       1.0  T
 116   -407.6729423 -0.186422E-05  0.678E-03    0.08       1.0  T
 117   -407.6729428 -0.433663E-06  0.669E-03    0.08       1.0  T
 118   -407.6729438 -0.101745E-05  0.631E-03    0.08       1.0  T
 119   -407.6729475 -0.372219E-05  0.565E-03    0.08       1.1  T
 120   -407.6729488 -0.131934E-05  0.515E-03    0.08       1.2  T
 121   -407.6729498 -0.999966E-06  0.437E-03    0.08       1.4  T
 122   -407.6729521 -0.232423E-05  0.375E-03    0.08       1.7  T
 123   -407.6729531 -0.948751E-06  0.315E-03    0.08       2.0  T
 124   -407.6729537 -0.555733E-06  0.290E-03    0.08       2.2  T
 125   -407.6729540 -0.316085E-06  0.267E-03    0.08       2.4  T
 126   -407.6729543 -0.315763E-06  0.242E-03    0.08       2.6  T
 127   -407.6729546 -0.299302E-06  0.212E-03    0.08       3.0  T
 128   -407.6729548 -0.187260E-06  0.188E-03    0.08       3.4  T
 129   -407.6729550 -0.239045E-06  0.157E-03    0.08       4.0  T
 130   -407.6729552 -0.205920E-06  0.136E-03    0.08       4.7  T
 131   -407.6729553 -0.600677E-07  0.122E-03    0.08       5.2  T
 132   -407.6729554 -0.173940E-06  0.953E-04    0.08       6.6  T
 133   -407.6729556 -0.131434E-06  0.633E-04    0.08      10.0  T

   *** convergence criteria satisfied after 133 iterations ***

         #    Occupation            Energy/Eh            Energy/eV
      -------------------------------------------------------------
         1        2.0000           -0.8231458             -22.3989
       ...           ...                  ...                  ...
       346        2.0000           -0.3219649              -8.7611
       347        2.0000           -0.3199428              -8.7061
       348        2.0000           -0.3194963              -8.6939
       349        1.9999           -0.3184614              -8.6658
       350        1.9996           -0.3170964              -8.6286
       351        1.9909           -0.3141429              -8.5483
       352        1.5960           -0.3103249              -8.4444 (HOMO)
       353        0.3282           -0.3074731              -8.3668 (LUMO)
       354        0.0719           -0.3058953              -8.3238
       355        0.0099           -0.3039778              -8.2717
       356        0.0036           -0.3030133              -8.2454
       357        0.0000           -0.2937198              -7.9925
       ...           ...                  ...                  ...
       632                          1.3602205              37.0135
      -------------------------------------------------------------
                  HL-Gap            0.0028518 Eh            0.0776 eV
             Fermi-level           -0.3090196 Eh           -8.4089 eV

 SCC (total)                   0 d,  0 h,  0 min, 35.377 sec
 SCC setup                      ...        0 min,  0.021 sec (  0.060%)
 Dispersion                     ...        0 min,  0.035 sec (  0.099%)
 classical contributions        ...        0 min,  0.018 sec (  0.050%)
 integral evaluation            ...        0 min,  0.062 sec (  0.176%)
 iterations                     ...        0 min, 34.794 sec ( 98.351%)
 molecular gradient             ...        0 min,  0.409 sec (  1.157%)
 printout                       ...        0 min,  0.037 sec (  0.105%)

         :::::::::::::::::::::::::::::::::::::::::::::::::::::
         ::                     SUMMARY                     ::
         :::::::::::::::::::::::::::::::::::::::::::::::::::::
         :: total energy            -402.900824491531 Eh    ::
         :: gradient norm              0.498499912834 Eh/a0 ::
         :: HOMO-LUMO gap              0.077601796217 eV    ::
         ::.................................................::
         :: SCC energy              -407.672955579666 Eh    ::
         :: -> isotropic ES            1.063541330178 Eh    ::
         :: -> anisotropic ES         -0.025663918643 Eh    ::
         :: -> anisotropic XC          0.112640202866 Eh    ::
         :: -> dispersion             -0.317524217491 Eh    ::
         :: repulsion energy           4.744735693955 Eh    ::
         :: add. restraining           0.000000000000 Eh    ::
         :: total charge               0.000000000117 e     ::
         :::::::::::::::::::::::::::::::::::::::::::::::::::::

           -------------------------------------------------
          |                Property Printout                |
           -------------------------------------------------

    * Orbital Energies and Occupations

         #    Occupation            Energy/Eh            Energy/eV
      -------------------------------------------------------------
         1        2.0000           -0.8231458             -22.3989
       ...           ...                  ...                  ...
       340        2.0000           -0.3458302              -9.4105
       341        2.0000           -0.3334506              -9.0737
       342        2.0000           -0.3327686              -9.0551
       343        2.0000           -0.3311094              -9.0099
       344        2.0000           -0.3263849              -8.8814
       345        2.0000           -0.3245568              -8.8316
       346        2.0000           -0.3219649              -8.7611
       347        2.0000           -0.3199428              -8.7061
       348        2.0000           -0.3194963              -8.6939
       349        1.9999           -0.3184614              -8.6658
       350        1.9996           -0.3170964              -8.6286
       351        1.9909           -0.3141429              -8.5483
       352        1.5960           -0.3103249              -8.4444 (HOMO)
       353        0.3282           -0.3074731              -8.3668 (LUMO)
       354        0.0719           -0.3058953              -8.3238
       355        0.0099           -0.3039778              -8.2717
       356        0.0036           -0.3030133              -8.2454
       357        0.0000           -0.2937198              -7.9925
       358                         -0.2714572              -7.3867
       359                         -0.2680022              -7.2927
       360                         -0.2657032              -7.2302
       361                         -0.2631878              -7.1617
       362                         -0.2627691              -7.1503
       363                         -0.2618690              -7.1258
       ...                                ...                  ...
       632                          1.3602205              37.0135
      -------------------------------------------------------------
                  HL-Gap            0.0028518 Eh            0.0776 eV
             Fermi-level           -0.3090196 Eh           -8.4089 eV

     #   Z          covCN         q      C6AA      α(0)
     1   1 H        0.862     0.159     1.344     1.816
     2   7 N        2.631    -0.333    28.579     7.940
     3   6 C        3.780     0.025    20.174     6.399
     4   6 C        2.763     0.183    24.064     8.033
     5   8 O        0.856    -0.334    20.399     6.055
     6   6 C        3.678     0.083    19.415     6.312
     7   8 O        1.652    -0.470    22.262     6.369
     8   1 H        0.860     0.184     1.193     1.711
     9   1 H        0.924     0.043     2.416     2.431
    10   1 H        0.924     0.024     2.667     2.554
    11   1 H        0.924     0.031     2.574     2.509
    12   1 H        0.803     0.346     0.599     1.215
    13   1 H        0.928     0.035     2.519     2.482
    14   1 H        0.862     0.149     1.407     1.858
    15   7 N        2.630    -0.349    29.000     7.998
    16   6 C        3.782     0.037    19.963     6.365
    17   6 C        2.763     0.200    23.745     7.980
    18   8 O        0.856    -0.354    20.783     6.112
    19   6 C        3.812    -0.067    21.768     6.641
    20   6 C        2.968     0.002    27.988     8.678
    21   6 C        2.932    -0.036    28.899     8.816
    22   6 C        2.938    -0.043    29.078     8.844
    23   6 C        2.922    -0.055    29.359     8.886
    24   6 C        2.927    -0.070    29.749     8.945
    25   6 C        2.863     0.147    24.810     8.165
    26   8 O        1.660    -0.406    20.963     6.181
    27   1 H        0.860     0.154     1.373     1.836
    28   1 H        0.924     0.055     2.252     2.347
    29   1 H        0.925     0.060     2.199     2.319
    30   1 H        0.925     0.056     2.248     2.345
    31   1 H        0.925     0.051     2.313     2.378
    32   1 H        0.926     0.036     2.496     2.471
    33   1 H        0.926     0.076     2.018     2.221
    34   1 H        0.926     0.023     2.682     2.561
    35   1 H        0.805     0.292     0.744     1.355
    36   1 H        0.928     0.046     2.369     2.407
    37   1 H        0.862     0.158     1.349     1.819
    38   7 N        2.664    -0.335    28.608     7.944
    39   6 C        3.785     0.039    19.930     6.359
    40   6 C        2.798     0.187    23.991     8.024
    41   8 O        0.856    -0.376    21.211     6.175
    42   6 C        3.757    -0.128    23.001     6.838
    43   1 H        0.859     0.230     0.964     1.538
    44   1 H        0.925     0.033     2.540     2.492
    45   1 H        0.924     0.069     2.102     2.267
    46   1 H        0.924     0.059     2.206     2.322
    47   1 H        0.925     0.021     2.725     2.581
    48   1 H        0.929     0.022     2.705     2.572
    49   1 H        0.862     0.133     1.520     1.931
    50   7 N        2.636    -0.347    28.935     7.989
    51   6 C        3.734    -0.004    20.747     6.501
    52   6 C        2.766     0.194    23.865     8.000
    53   8 O        0.856    -0.337    20.453     6.063
    54   1 H        0.860     0.198     1.116     1.655
    55   1 H        0.925     0.043     2.405     2.425
    56   1 H        0.925     0.073     2.054     2.241
    57   1 H        0.928     0.038     2.468     2.457
    58   1 H        0.862     0.143     1.449     1.886
    59   7 N        2.671    -0.359    29.250     8.032
    60   6 C        3.789     0.032    20.045     6.376
    61   6 C        2.790     0.201    23.730     7.980
    62   8 O        0.856    -0.328    20.290     6.039
    63   6 C        3.863    -0.025    20.977     6.513
    64   6 C        3.754    -0.109    22.641     6.785
    65   6 C        3.759    -0.107    22.602     6.778
    66   1 H        0.860     0.206     1.074     1.624
    67   1 H        0.925     0.034     2.526     2.485
    68   1 H        0.925     0.061     2.191     2.315
    69   1 H        0.924     0.024     2.667     2.554
    70   1 H        0.925     0.030     2.590     2.516
    71   1 H        0.925     0.047     2.352     2.398
    72   1 H        0.925     0.029     2.603     2.523
    73   1 H        0.925     0.031     2.566     2.505
    74   1 H        0.925     0.041     2.432     2.439
    75   1 H        0.928     0.030     2.580     2.512
    76   1 H        0.862     0.155     1.366     1.831
    77   7 N        2.631    -0.327    28.421     7.918
    78   6 C        3.783     0.029    20.106     6.387
    79   6 C        2.749     0.253    22.748     7.810
    80   8 O        0.858    -0.441    22.514     6.362
    81   6 C        3.805    -0.073    21.895     6.661
    82   6 C        2.966     0.023    27.491     8.600
    83   6 C        2.933    -0.042    29.033     8.837
    84   6 C        2.928    -0.036    28.901     8.816
    85   6 C        2.921    -0.038    28.940     8.822
    86   6 C        2.926    -0.040    29.006     8.832
    87   6 C        2.925    -0.043    29.070     8.842
    88   1 H        0.860     0.148     1.412     1.861
    89   1 H        0.925     0.028     2.613     2.528
    90   1 H        0.924     0.063     2.161     2.299
    91   1 H        0.924     0.058     2.225     2.333
    92   1 H        0.926     0.036     2.497     2.471
    93   1 H        0.926     0.034     2.524     2.485
    94   1 H        0.926     0.035     2.510     2.477
    95   1 H        0.927     0.031     2.576     2.510
    96   1 H        0.926     0.017     2.783     2.609
    97   7 N        2.690    -0.174    24.775     7.392
    98   6 C        3.791     0.034    20.017     6.372
    99   6 C        2.765     0.202    23.701     7.973
   100   8 O        0.856    -0.310    19.970     5.991
   101   6 C        3.805    -0.065    21.752     6.640
   102   6 C        3.798    -0.091    22.243     6.715
   103   6 C        2.686     0.363    20.837     7.470
   104   8 O        0.857    -0.460    22.924     6.419
   105   8 O        1.663    -0.323    19.413     5.948
   106   1 H        0.861     0.187     1.175     1.698
   107   1 H        0.924     0.070     2.084     2.257
   108   1 H        0.924     0.082     1.962     2.191
   109   1 H        0.924     0.064     2.157     2.297
   110   1 H        0.925     0.097     1.816     2.107
   111   1 H        0.924     0.076     2.026     2.226
   112   1 H        0.807     0.353     0.581     1.198
   113   1 H        0.928     0.060     2.195     2.317
   114   1 H        0.862     0.147     1.422     1.868
   115   7 N        2.631    -0.343    28.829     7.974
   116   6 C        3.786     0.022    20.222     6.405
   117   6 C        2.763     0.260    22.615     7.788
   118   8 O        0.859    -0.473    23.200     6.458
   119   6 C        3.847    -0.022    20.931     6.508
   120   6 C        3.753    -0.106    22.575     6.775
   121   6 C        3.754    -0.106    22.582     6.776
   122   1 H        0.860     0.176     1.237     1.742
   123   1 H        0.926     0.026     2.641     2.542
   124   1 H        0.925     0.034     2.529     2.487
   125   1 H        0.925     0.048     2.350     2.397
   126   1 H        0.925     0.019     2.749     2.593
   127   1 H        0.925     0.051     2.311     2.377
   128   1 H        0.925     0.044     2.402     2.424
   129   1 H        0.925     0.023     2.689     2.564
   130   1 H        0.925     0.030     2.587     2.515
   131   7 N        2.697    -0.151    24.273     7.317
   132   6 C        3.758    -0.034    21.233     6.569
   133   6 C        2.765     0.264    22.546     7.776
   134   8 O        0.859    -0.478    23.296     6.471
   135   1 H        0.860     0.193     1.140     1.673
   136   1 H        0.924     0.085     1.930     2.172
   137   1 H        0.926     0.110     1.697     2.037
   138   7 N        2.692    -0.163    24.535     7.357
   139   6 C        3.799     0.015    20.318     6.418
   140   6 C        2.769     0.199    23.759     7.983
   141   8 O        0.857    -0.327    20.268     6.036
   142   6 C        3.824    -0.072    21.855     6.653
   143   6 C        3.794    -0.009    20.737     6.485
   144  16 S        1.965    -0.206   149.823    20.601
   145   6 C        3.750    -0.051    21.545     6.620
   146   1 H        0.860     0.230     0.965     1.539
   147   1 H        0.927     0.138     1.473     1.898
   148   1 H        0.925     0.086     1.922     2.168
   149   1 H        0.925     0.071     2.078     2.254
   150   1 H        0.925     0.040     2.455     2.450
   151   1 H        0.925     0.049     2.330     2.387
   152   1 H        0.926     0.053     2.283     2.363
   153   1 H        0.925     0.028     2.611     2.527
   154   1 H        0.926     0.046     2.370     2.407
   155   1 H        0.928     0.064     2.153     2.295
   156   1 H        0.862     0.161     1.329     1.806
   157   7 N        2.631    -0.344    28.859     7.978
   158   6 C        3.788     0.006    20.499     6.448
   159   6 C        2.756     0.257    22.672     7.797
   160   8 O        0.860    -0.458    22.873     6.412
   161   6 C        3.727     0.105    18.943     6.214
   162   8 O        1.667    -0.459    22.017     6.335
   163   6 C        3.758    -0.132    23.090     6.851
   164   1 H        0.860     0.135     1.511     1.926
   165   1 H        0.924     0.070     2.087     2.259
   166   1 H        0.924     0.064     2.148     2.292
   167   1 H        0.805     0.311     0.689     1.304
   168   1 H        0.925     0.059     2.216     2.328
   169   1 H        0.925     0.056     2.241     2.341
   170   1 H        0.924     0.059     2.210     2.325
   171   7 N        2.692    -0.151    24.264     7.316
   172   6 C        3.795     0.033    20.022     6.372
   173   6 C        2.767     0.178    24.173     8.052
   174   8 O        0.856    -0.340    20.510     6.072
   175   6 C        3.809    -0.105    22.495     6.751
   176   6 C        2.744     0.278    22.293     7.731
   177   8 O        0.870    -0.447    22.626     6.378
   178   7 N        2.638    -0.250    26.521     7.648
   179   1 H        0.860     0.206     1.076     1.625
   180   1 H        0.924     0.099     1.798     2.097
   181   1 H        0.925     0.053     2.284     2.363
   182   1 H        0.925     0.108     1.712     2.046
   183   1 H        0.860     0.193     1.142     1.674
   184   1 H        0.860     0.240     0.923     1.505
   185   1 H        0.928     0.045     2.386     2.416
   186   1 H        0.862     0.148     1.411     1.861
   187   7 N        2.631    -0.352    29.073     8.008
   188   6 C        3.783     0.030    20.086     6.384
   189   6 C        2.764     0.177    24.187     8.054
   190   8 O        0.856    -0.364    20.976     6.141
   191   6 C        3.810    -0.080    22.010     6.678
   192   6 C        3.080     0.057    26.638     8.461
   193   7 N        2.844    -0.049    22.187     6.996
   194   6 C        3.053    -0.021    28.484     8.753
   195   6 C        3.026     0.043    27.007     8.524
   196   7 N        2.833    -0.046    22.135     6.988
   197   1 H        0.860     0.150     1.402     1.855
   198   1 H        0.925     0.112     1.683     2.029
   199   1 H        0.924     0.106     1.731     2.058
   200   1 H        0.925     0.111     1.690     2.033
   201   1 H        0.860     0.221     1.005     1.571
   202   1 H        0.928     0.087     1.904     2.158
   203   1 H        0.925     0.087     1.904     2.158
   204   1 H        0.860     0.199     1.111     1.651
   205   1 H        0.928     0.035     2.520     2.482
   206  16 S        3.438     1.490    93.688    16.291
   207   8 O        0.859    -0.778    30.918     7.455
   208   8 O        0.860    -0.766    30.578     7.414
   209   8 O        0.860    -0.709    28.953     7.214
   210   8 O        0.859    -0.651    27.400     7.018
   211   6 C        3.671     0.053    19.923     6.398
   212   8 O        1.653    -0.457    21.978     6.329
   213   6 C        3.779    -0.020    20.946     6.520
   214   7 N        3.534    -0.072    22.625     7.065
   215   6 C        3.712     0.098    19.082     6.242
   216   8 O        1.654    -0.397    20.799     6.156
   217   6 C        3.714     0.102    19.023     6.232
   218   8 O        1.648    -0.447    21.781     6.300
   219   6 C        3.785    -0.009    20.761     6.490
   220   7 N        2.715    -0.183    24.952     7.419
   221   6 C        2.843     0.116    25.431     8.265
   222   7 N        1.830    -0.262    27.650     7.792
   223   6 C        3.115     0.065    26.389     8.415
   224   6 C        3.070    -0.002    27.999     8.676
   225   6 C        2.756     0.276    22.326     7.738
   226   8 O        0.857    -0.444    22.585     6.372
   227   7 N        2.789    -0.077    22.730     7.081
   228   6 C        3.011    -0.015    28.375     8.738
   229   6 C        3.054    -0.049    29.159     8.856
   230   1 H        0.860     0.250     0.884     1.473
   231   1 H        0.860     0.239     0.925     1.507
   232   1 H        0.859     0.273     0.800     1.401
   233   1 H        0.860     0.241     0.919     1.502
   234   1 H        0.797     0.364     0.557     1.173
   235   1 H        0.804     0.319     0.667     1.283
   236   1 H        0.804     0.309     0.695     1.310
   237   1 H        0.925     0.041     2.433     2.439
   238   1 H        0.926     0.051     2.302     2.373
   239   1 H        0.924     0.153     1.375     1.834
   240   1 H        0.923     0.075     2.028     2.227
   241   1 H        0.922     0.021     2.722     2.580
   242   1 H        0.923     0.138     1.478     1.901
   243   1 H        0.924     0.062     2.181     2.309
   244   1 H        0.923     0.047     2.354     2.399
   245   8 O        1.607    -0.641    26.181     6.906
   246   1 H        0.803     0.316     0.674     1.290
   247   1 H        0.804     0.291     0.748     1.358
   248   8 O        1.606    -0.704    27.818     7.118
   249   1 H        0.814     0.313     0.681     1.295
   250   1 H        0.817     0.317     0.671     1.286

 Mol. C6AA /au·bohr⁶  :     612871.628188
 Mol. C8AA /au·bohr⁸  :   13930383.297448
 Mol. α(0) /au        :       1182.078374


Wiberg/Mayer (AO) data.
largest (>0.10) Wiberg bond orders for each atom

 ---------------------------------------------------------------------------
     #   Z sym  total        # sym  WBO       # sym  WBO       # sym  WBO
 ---------------------------------------------------------------------------
     1   1 H    0.975 --     2 N    0.964
     2   7 N    3.056 --     3 C    1.023     1 H    0.964     8 H    0.940
     3   6 C    3.990 --     2 N    1.023     4 C    0.970     6 C    0.956
                             9 H    0.955
     4   6 C    3.916 --     5 O    1.902     3 C    0.970    13 H    0.948
     5   8 O    2.064 --     4 C    1.902
     6   6 C    3.971 --     7 O    1.016    11 H    0.973    10 H    0.967
                             3 C    0.956
     7   8 O    1.943 --     6 C    1.016    12 H    0.830
     8   1 H    0.966 --     2 N    0.940
     9   1 H    0.998 --     3 C    0.955
    10   1 H    0.999 --     6 C    0.967
    11   1 H    0.999 --     6 C    0.973
    12   1 H    0.880 --     7 O    0.830
    13   1 H    0.999 --     4 C    0.948
    14   1 H    0.978 --    15 N    0.967
    15   7 N    3.025 --    16 C    1.020    14 H    0.967    27 H    0.962
    16   6 C    3.985 --    15 N    1.020    17 C    0.982    19 C    0.957
                            28 H    0.935
    17   6 C    3.910 --    18 O    1.884    16 C    0.982    36 H    0.948
    18   8 O    2.051 --    17 C    1.884
    19   6 C    3.991 --    20 C    1.007    30 H    0.970    29 H    0.962
                            16 C    0.957
    20   6 C    3.988 --    21 C    1.410    22 C    1.409    19 C    1.007
    21   6 C    3.990 --    23 C    1.450    20 C    1.410    31 H    0.963
                            24 C    0.104
    22   6 C    3.992 --    24 C    1.449    20 C    1.409    32 H    0.960
                            23 C    0.111
    23   6 C    3.986 --    21 C    1.450    25 C    1.375    33 H    0.961
                            22 C    0.111
    24   6 C    3.989 --    22 C    1.449    25 C    1.381    34 H    0.965
                            21 C    0.104
    25   6 C    3.936 --    24 C    1.381    23 C    1.375    26 O    1.049
    26   8 O    2.099 --    25 C    1.049    35 H    0.891
    27   1 H    0.976 --    15 N    0.962
    28   1 H    0.997 --    16 C    0.935
    29   1 H    0.996 --    19 C    0.962
    30   1 H    0.997 --    19 C    0.970
    31   1 H    0.997 --    21 C    0.963
    32   1 H    0.999 --    22 C    0.960
    33   1 H    0.994 --    23 C    0.961
    34   1 H    0.999 --    24 C    0.965
    35   1 H    0.914 --    26 O    0.891
    36   1 H    0.998 --    17 C    0.948
    37   1 H    0.975 --    38 N    0.964
    38   7 N    3.157 --    39 C    1.009    37 H    0.964    43 H    0.876
                            40 C    0.139
    39   6 C    3.990 --    38 N    1.009    42 C    0.987    44 H    0.966
                            40 C    0.965
    40   6 C    3.913 --    41 O    1.814    39 C    0.965    48 H    0.950
                            38 N    0.139
    41   8 O    2.052 --    40 C    1.814
    42   6 C    3.993 --    39 C    0.987    45 H    0.981    47 H    0.978
                            46 H    0.966
    43   1 H    0.947 --    38 N    0.876
    44   1 H    0.998 --    39 C    0.966
    45   1 H    0.995 --    42 C    0.981
    46   1 H    0.996 --    42 C    0.966
    47   1 H    1.000 --    42 C    0.978
    48   1 H    1.000 --    40 C    0.950
    49   1 H    0.982 --    50 N    0.973
    50   7 N    3.033 --    51 C    1.037    49 H    0.973    54 H    0.920
    51   6 C    3.992 --    50 N    1.037    52 C    0.989    55 H    0.960
                            56 H    0.934
    52   6 C    3.909 --    53 O    1.906    51 C    0.989    57 H    0.948
    53   8 O    2.068 --    52 C    1.906
    54   1 H    0.961 --    50 N    0.920
    55   1 H    0.998 --    51 C    0.960
    56   1 H    0.995 --    51 C    0.934
    57   1 H    0.998 --    52 C    0.948
    58   1 H    0.980 --    59 N    0.969
    59   7 N    3.050 --    60 C    1.025    58 H    0.969    66 H    0.910
    60   6 C    3.988 --    59 N    1.025    61 C    0.966    67 H    0.961
                            63 C    0.944
    61   6 C    3.906 --    62 O    1.909    60 C    0.966    75 H    0.949
    62   8 O    2.082 --    61 C    1.909
    63   6 C    3.992 --    65 C    1.016    64 C    1.009    68 H    0.956
                            60 C    0.944
    64   6 C    3.997 --    63 C    1.009    69 H    0.986    70 H    0.981
                            71 H    0.980
    65   6 C    3.998 --    63 C    1.016    73 H    0.986    74 H    0.985
                            72 H    0.983
    66   1 H    0.957 --    59 N    0.910
    67   1 H    0.999 --    60 C    0.961
    68   1 H    0.996 --    63 C    0.956
    69   1 H    0.999 --    64 C    0.986
    70   1 H    0.999 --    64 C    0.981
    71   1 H    0.998 --    64 C    0.980
    72   1 H    0.998 --    65 C    0.983
    73   1 H    0.999 --    65 C    0.986
    74   1 H    0.998 --    65 C    0.985
    75   1 H    0.999 --    61 C    0.949
    76   1 H    0.976 --    77 N    0.967
    77   7 N    3.043 --    78 C    1.035    76 H    0.967    88 H    0.965
    78   6 C    3.986 --    77 N    1.035    81 C    0.980    89 H    0.944
                            79 C    0.917
    79   6 C    3.945 --    80 O    1.677    97 N    1.268    78 C    0.917
    80   8 O    1.987 --    79 C    1.677    97 N    0.190
    81   6 C    3.993 --    82 C    1.006    78 C    0.980    90 H    0.963
                            91 H    0.956
    82   6 C    3.987 --    84 C    1.418    83 C    1.411    81 C    1.006
                            87 C    0.106
    83   6 C    3.991 --    85 C    1.440    82 C    1.411    92 H    0.956
                            86 C    0.115
    84   6 C    3.991 --    86 C    1.442    82 C    1.418    93 H    0.969
                            85 C    0.110
    85   6 C    3.993 --    87 C    1.446    83 C    1.440    94 H    0.965
                            84 C    0.110
    86   6 C    3.992 --    84 C    1.442    87 C    1.434    95 H    0.966
                            83 C    0.115
    87   6 C    3.993 --    85 C    1.446    86 C    1.434    96 H    0.965
                            82 C    0.106
    88   1 H    0.978 --    77 N    0.965
    89   1 H    0.999 --    78 C    0.944
    90   1 H    0.996 --    81 C    0.963
    91   1 H    0.997 --    81 C    0.956
    92   1 H    0.999 --    83 C    0.956
    93   1 H    0.999 --    84 C    0.969
    94   1 H    0.998 --    85 C    0.965
    95   1 H    0.999 --    86 C    0.966
    96   1 H    0.999 --    87 C    0.965
    97   7 N    3.447 --    79 C    1.268    98 C    0.981   106 H    0.915
                            80 O    0.190
    98   6 C    3.976 --    97 N    0.981    99 C    0.975   101 C    0.969
                           107 H    0.949
    99   6 C    3.911 --   100 O    1.924    98 C    0.975   113 H    0.947
   100   8 O    2.070 --    99 C    1.924
   101   6 C    3.985 --   102 C    0.993   109 H    0.972   108 H    0.971
                            98 C    0.969
   102   6 C    3.989 --   101 C    0.993   111 H    0.972   103 C    0.971
                           110 H    0.943
   103   6 C    3.901 --   104 O    1.613   105 O    1.252   102 C    0.971
   104   8 O    1.998 --   103 C    1.613   105 O    0.175
   105   8 O    2.299 --   103 C    1.252   112 H    0.820   104 O    0.175
   106   1 H    0.965 --    97 N    0.915
   107   1 H    0.995 --    98 C    0.949
   108   1 H    0.993 --   101 C    0.971
   109   1 H    0.995 --   101 C    0.972
   110   1 H    0.990 --   102 C    0.943
   111   1 H    0.994 --   102 C    0.972
   112   1 H    0.875 --   105 O    0.820
   113   1 H    0.996 --    99 C    0.947
   114   1 H    0.978 --   115 N    0.969
   115   7 N    3.039 --   116 C    1.031   114 H    0.969   122 H    0.942
   116   6 C    3.988 --   115 N    1.031   123 H    0.966   119 C    0.944
                           117 C    0.942
   117   6 C    3.948 --   118 O    1.614   131 N    1.313   116 C    0.942
   118   8 O    1.966 --   117 C    1.614   131 N    0.196
   119   6 C    3.994 --   120 C    1.013   121 C    1.008   124 H    0.970
                           116 C    0.944
   120   6 C    3.995 --   119 C    1.013   126 H    0.986   125 H    0.983
                           127 H    0.981
   121   6 C    3.997 --   119 C    1.008   129 H    0.986   130 H    0.985
                           128 H    0.979
   122   1 H    0.969 --   115 N    0.942
   123   1 H    0.999 --   116 C    0.966
   124   1 H    0.998 --   119 C    0.970
   125   1 H    0.998 --   120 C    0.983
   126   1 H    1.000 --   120 C    0.986
   127   1 H    0.997 --   120 C    0.981
   128   1 H    0.998 --   121 C    0.979
   129   1 H    0.999 --   121 C    0.986
   130   1 H    0.999 --   121 C    0.985
   131   7 N    3.484 --   117 C    1.313   132 C    0.996   135 H    0.919
                           118 O    0.196
   132   6 C    3.964 --   131 N    0.996   133 C    0.972   136 H    0.941
                           137 H    0.937
   133   6 C    3.958 --   134 O    1.596   138 N    1.321   132 C    0.972
   134   8 O    1.967 --   133 C    1.596   138 N    0.196
   135   1 H    0.962 --   131 N    0.919
   136   1 H    0.993 --   132 C    0.941
   137   1 H    0.988 --   132 C    0.937
   138   7 N    3.491 --   133 C    1.321   139 C    0.985   146 H    0.904
                           134 O    0.196
   139   6 C    3.964 --   140 C    0.993   138 N    0.985   142 C    0.969
                           147 H    0.900
   140   6 C    3.916 --   141 O    1.912   139 C    0.993   155 H    0.945
   141   8 O    2.064 --   140 C    1.912
   142   6 C    3.984 --   143 C    1.008   149 H    0.971   139 C    0.969
                           148 H    0.967
   143   6 C    3.975 --   142 C    1.008   144 S    0.981   151 H    0.971
                           150 H    0.971
   144  16 S    2.093 --   145 C    1.028   143 C    0.981
   145   6 C    3.988 --   144 S    1.028   153 H    0.979   152 H    0.974
                           154 H    0.967
   146   1 H    0.947 --   138 N    0.904
   147   1 H    0.981 --   139 C    0.900
   148   1 H    0.993 --   142 C    0.967
   149   1 H    0.994 --   142 C    0.971
   150   1 H    0.998 --   143 C    0.971
   151   1 H    0.998 --   143 C    0.971
   152   1 H    0.997 --   145 C    0.974
   153   1 H    0.999 --   145 C    0.979
   154   1 H    0.998 --   145 C    0.967
   155   1 H    0.995 --   140 C    0.945
   156   1 H    0.974 --   157 N    0.964
   157   7 N    3.032 --   158 C    1.022   156 H    0.964   164 H    0.957
   158   6 C    3.979 --   157 N    1.022   161 C    0.956   165 H    0.955
                           159 C    0.927
   159   6 C    3.950 --   160 O    1.659   171 N    1.289   158 C    0.927
   160   8 O    1.973 --   159 C    1.659   171 N    0.197
   161   6 C    3.944 --   163 C    1.010   166 H    0.962   162 O    0.958
                           158 C    0.956
   162   8 O    2.013 --   161 C    0.958   167 H    0.865
   163   6 C    3.991 --   161 C    1.010   169 H    0.980   170 H    0.979
                           168 H    0.978
   164   1 H    0.982 --   157 N    0.957
   165   1 H    0.995 --   158 C    0.955
   166   1 H    0.996 --   161 C    0.962
   167   1 H    0.903 --   162 O    0.865
   168   1 H    0.997 --   163 C    0.978
   169   1 H    0.996 --   163 C    0.980
   170   1 H    0.996 --   163 C    0.979
   171   7 N    3.471 --   159 C    1.289   172 C    0.994   179 H    0.916
                           160 O    0.197
   172   6 C    3.977 --   171 N    0.994   173 C    0.981   175 C    0.954
                           180 H    0.928
   173   6 C    3.847 --   174 O    1.863   172 C    0.981   185 H    0.949
   174   8 O    2.021 --   173 C    1.863
   175   6 C    3.987 --   176 C    0.976   181 H    0.971   172 C    0.954
                           182 H    0.944
   176   6 C    3.950 --   177 O    1.597   178 N    1.327   175 C    0.976
   177   8 O    2.009 --   176 C    1.597   178 N    0.191
   178   7 N    3.425 --   176 C    1.327   183 H    0.941   184 H    0.919
                           177 O    0.191
   179   1 H    0.958 --   171 N    0.916
   180   1 H    0.987 --   172 C    0.928
   181   1 H    0.997 --   175 C    0.971
   182   1 H    0.988 --   175 C    0.944
   183   1 H    0.963 --   178 N    0.941
   184   1 H    0.942 --   178 N    0.919
   185   1 H    0.997 --   173 C    0.949
   186   1 H    0.978 --   187 N    0.966
   187   7 N    3.023 --   188 C    1.015   186 H    0.966   197 H    0.959
   188   6 C    3.976 --   187 N    1.015   189 C    0.983   191 C    0.961
                           198 H    0.909
   189   6 C    3.870 --   190 O    1.843   188 C    0.983   205 H    0.948
   190   8 O    2.008 --   189 C    1.843
   191   6 C    3.975 --   192 C    1.017   188 C    0.961   199 H    0.959
                           200 H    0.936
   192   6 C    3.942 --   194 C    1.594   193 N    1.180   191 C    1.017
   193   7 N    3.544 --   195 C    1.297   192 C    1.180   201 H    0.913
   194   6 C    3.909 --   192 C    1.594   196 N    1.171   202 H    0.966
   195   6 C    3.705 --   193 N    1.297   196 N    1.289   203 H    0.958
   196   7 N    3.521 --   195 C    1.289   194 C    1.171   204 H    0.934
   197   1 H    0.978 --   187 N    0.959
   198   1 H    0.984 --   188 C    0.909
   199   1 H    0.989 --   191 C    0.959
   200   1 H    0.987 --   191 C    0.936
   201   1 H    0.951 --   193 N    0.913
   202   1 H    0.992 --   194 C    0.966
   203   1 H    0.992 --   195 C    0.958
   204   1 H    0.960 --   196 N    0.934
   205   1 H    0.999 --   189 C    0.948
   206  16 S    5.105 --   209 O    1.364   208 O    1.259   210 O    1.239
                           207 O    1.215
   207   8 O    1.587 --   206 S    1.215
   208   8 O    1.704 --   206 S    1.259
   209   8 O    1.677 --   206 S    1.364
   210   8 O    1.488 --   206 S    1.239
   211   6 C    3.954 --   212 O    0.998   213 C    0.986   244 H    0.967
                           243 H    0.965
   212   8 O    1.963 --   211 C    0.998   236 H    0.878
   213   6 C    3.918 --   211 C    0.986   215 C    0.954   242 H    0.945
                           214 N    0.938
   214   7 N    3.709 --   213 C    0.938   219 C    0.905   230 H    0.890
                           232 H    0.885
   215   6 C    3.963 --   216 O    1.034   241 H    0.965   213 C    0.954
                           217 C    0.930
   216   8 O    2.001 --   215 C    1.034   235 H    0.877
   217   6 C    3.969 --   218 O    1.058   240 H    0.956   219 C    0.947
                           215 C    0.930
   218   8 O    1.979 --   217 C    1.058   234 H    0.768
   219   6 C    3.896 --   229 C    1.015   217 C    0.947   239 H    0.915
                           214 N    0.905
   220   7 N    3.549 --   221 C    1.250   225 C    1.087   231 H    0.842
                           226 O    0.142   222 N    0.111
   221   6 C    3.968 --   222 N    1.603   220 N    1.250   237 H    0.938
   222   7 N    3.056 --   221 C    1.603   223 C    1.179   220 N    0.111
   223   6 C    3.976 --   224 C    1.324   229 C    1.250   222 N    1.179
   224   6 C    3.957 --   223 C    1.324   227 N    1.217   225 C    1.117
   225   6 C    3.956 --   226 O    1.647   224 C    1.117   220 N    1.087
   226   8 O    2.000 --   225 C    1.647   220 N    0.142
   227   7 N    3.608 --   228 C    1.274   224 C    1.217   233 H    0.879
   228   6 C    3.954 --   229 C    1.493   227 N    1.274   238 H    0.954
   229   6 C    3.964 --   228 C    1.493   223 C    1.250   219 C    1.015
   230   1 H    0.938 --   214 N    0.890
   231   1 H    0.942 --   220 N    0.842
   232   1 H    0.925 --   214 N    0.885
   233   1 H    0.941 --   227 N    0.879
   234   1 H    0.867 --   218 O    0.768
   235   1 H    0.898 --   216 O    0.877
   236   1 H    0.905 --   212 O    0.878
   237   1 H    0.998 --   221 C    0.938
   238   1 H    0.997 --   228 C    0.954
   239   1 H    0.976 --   219 C    0.915
   240   1 H    0.994 --   217 C    0.956
   241   1 H    0.999 --   215 C    0.965
   242   1 H    0.981 --   213 C    0.945
   243   1 H    0.996 --   211 C    0.965
   244   1 H    0.998 --   211 C    0.967
   245   8 O    1.805 --   247 H    0.881   246 H    0.850
   246   1 H    0.900 --   245 O    0.850
   247   1 H    0.915 --   245 O    0.881
   248   8 O    1.788 --   250 H    0.815   249 H    0.808
   249   1 H    0.902 --   248 O    0.808
   250   1 H    0.900 --   248 O    0.815
 ---------------------------------------------------------------------------

Topologies differ in total number of bonds
Writing topology from bond orders to xtbtopo.mol

molecular dipole:
                 x           y           z       tot (Debye)
 q only:        1.025      13.272      -4.604
   full:        0.285      12.621      -5.341      34.840
molecular quadrupole (traceless):
                xx          xy          yy          xz          yz          zz
 q only:     -681.002    1999.407    2507.887    -646.357     561.494   -1826.884
  q+dip:     -724.166    1805.181    2500.666    -831.502     409.683   -1776.500
   full:     -730.095    1805.832    2506.234    -829.207     410.469   -1776.139


           -------------------------------------------------
          | TOTAL ENERGY             -402.900824491531 Eh   |
          | GRADIENT NORM               0.498499912834 Eh/α |
          | HOMO-LUMO GAP               0.077601796217 eV   |
           -------------------------------------------------

------------------------------------------------------------------------
 * finished run on 2024/01/10 at 00:32:14.245     
------------------------------------------------------------------------
 total:
 * wall-time:     0 d,  0 h,  0 min, 35.683 sec
 *  cpu-time:     0 d,  0 h,  9 min,  2.819 sec
 * ratio c/w:    15.212 speedup
 SCF:
 * wall-time:     0 d,  0 h,  0 min, 35.381 sec
 *  cpu-time:     0 d,  0 h,  8 min, 59.170 sec
 * ratio c/w:    15.239 speedup

