      -----------------------------------------------------------      
     |                   =====================                   |     
     |                           x T B                           |     
     |                   =====================                   |     
     |                         S. Grimme                         |     
     |          Mulliken Center for Theoretical Chemistry        |     
     |                    University of Bonn                     |     
      -----------------------------------------------------------      

   * xtb version 6.6.0 (2ccbbd7) compiled by 'conda@6fe65c42fc39' on 2023-02-10

   xtb is free software: you can redistribute it and/or modify it under
   the terms of the GNU Lesser General Public License as published by
   the Free Software Foundation, either version 3 of the License, or
   (at your option) any later version.
   
   xtb is distributed in the hope that it will be useful,
   but WITHOUT ANY WARRANTY; without even the implied warranty of
   MERCHANTABILITY or FITNESS FOR A PARTICULAR PURPOSE.  See the
   GNU Lesser General Public License for more details.
   
   Cite this work as:
   * C. Bannwarth, E. Caldeweyher, S. Ehlert, A. Hansen, P. Pracht,
     J. Seibert, S. Spicher, S. Grimme, WIREs Comput. Mol. Sci., 2020, 11,
     e01493. DOI: 10.1002/wcms.1493
   
   for GFN2-xTB:
   * C. Bannwarth, S. Ehlert and S. Grimme., J. Chem. Theory Comput., 2019,
     15, 1652-1671. DOI: 10.1021/acs.jctc.8b01176
   for GFN1-xTB:
   * S. Grimme, C. Bannwarth, P. Shushkov, J. Chem. Theory Comput., 2017,
     13, 1989-2009. DOI: 10.1021/acs.jctc.7b00118
   for GFN0-xTB:
   * P. Pracht, E. Caldeweyher, S. Ehlert, S. Grimme, ChemRxiv, 2019, preprint.
     DOI: 10.26434/chemrxiv.8326202.v1
   for GFN-FF:
   * S. Spicher and S. Grimme, Angew. Chem. Int. Ed., 2020, 59, 15665-15673.
     DOI: 10.1002/anie.202004239
   
   for ALPB and GBSA implicit solvation:
   * S. Ehlert, M. Stahn, S. Spicher, S. Grimme, J. Chem. Theory Comput.,
     2021, 17, 4250-4261. DOI: 10.1021/acs.jctc.1c00471
   
   for DFT-D4:
   * E. Caldeweyher, C. Bannwarth and S. Grimme, J. Chem. Phys., 2017,
     147, 034112. DOI: 10.1063/1.4993215
   * E. Caldeweyher, S. Ehlert, A. Hansen, H. Neugebauer, S. Spicher,
     C. Bannwarth and S. Grimme, J. Chem. Phys., 2019, 150, 154122.
     DOI: 10.1063/1.5090222
   * E. Caldeweyher, J.-M. Mewes, S. Ehlert and S. Grimme, Phys. Chem. Chem. Phys.
     2020, 22, 8499-8512. DOI: 10.1039/D0CP00502A
   
   for sTDA-xTB:
   * S. Grimme and C. Bannwarth, J. Chem. Phys., 2016, 145, 054103.
     DOI: 10.1063/1.4959605
   
   in the mass-spec context:
   * V. Asgeirsson, C. Bauer and S. Grimme, Chem. Sci., 2017, 8, 4879.
     DOI: 10.1039/c7sc00601b
   * J. Koopman and S. Grimme, ACS Omega 2019, 4, 12, 15120-15133.
     DOI: 10.1021/acsomega.9b02011
   
   for metadynamics refer to:
   * S. Grimme, J. Chem. Theory Comput., 2019, 155, 2847-2862
     DOI: 10.1021/acs.jctc.9b00143
   
   for SPH calculations refer to:
   * S. Spicher and S. Grimme, J. Chem. Theory Comput., 2021, 17, 1701-1714
     DOI: 10.1021/acs.jctc.0c01306
   
   with help from (in alphabetical order)
   P. Atkinson, C. Bannwarth, F. Bohle, G. Brandenburg, E. Caldeweyher
   M. Checinski, S. Dohm, S. Ehlert, S. Ehrlich, I. Gerasimov, C. Hölzer
   A. Katbashev, J. Koopman, C. Lavigne, S. Lehtola, F. März, M. Müller,
   F. Musil, H. Neugebauer, J. Pisarek, C. Plett, P. Pracht, F. Pultar,
   J. Seibert, P. Shushkov, S. Spicher, M. Stahn, M. Steiner, T. Strunk,
   J. Stückrath, T. Rose, and J. Unsleber
   
 * started run on 2023/12/24 at 05:32:10.239     

           -------------------------------------------------
          |                Calculation Setup                |
           -------------------------------------------------

          program call               : xtb gau_xtb.xyz --chrg 0 --uhf 0 --grad
          hostname                   : node35
          coordinate file            : gau_xtb.xyz
          omp threads                :                    12

   ID    Z sym.   atoms
    1    6 C      1-6, 8-10, 12, 14, 16, 18-24, 26, 28, 29
    2    7 N      7, 11, 15
    3    8 O      13, 17, 25, 27
    4    1 H      30-48

           -------------------------------------------------
          |                 G F N 2 - x T B                 |
           -------------------------------------------------

        Reference                      10.1021/acs.jctc.8b01176
      * Hamiltonian:
        H0-scaling (s, p, d)           1.850000    2.230000    2.230000
        zeta-weighting                 0.500000
      * Dispersion:
        s8                             2.700000
        a1                             0.520000
        a2                             5.000000
        s9                             5.000000
      * Repulsion:
        kExp                           1.500000    1.000000
        rExp                           1.000000
      * Coulomb:
        alpha                          2.000000
        third order                    shell-resolved
        anisotropic                    true
        a3                             3.000000
        a5                             4.000000
        cn-shift                       1.200000
        cn-exp                         4.000000
        max-rad                        5.000000


          ...................................................
          :                      SETUP                      :
          :.................................................:
          :  # basis functions                 135          :
          :  # atomic orbitals                 135          :
          :  # shells                           77          :
          :  # electrons                       146          :
          :  max. iterations                   250          :
          :  Hamiltonian                  GFN2-xTB          :
          :  restarted?                      false          :
          :  GBSA solvation                  false          :
          :  PC potential                    false          :
          :  electronic temp.          300.0000000     K    :
          :  accuracy                    1.0000000          :
          :  -> integral cutoff          0.2500000E+02      :
          :  -> integral neglect         0.1000000E-07      :
          :  -> SCF convergence          0.1000000E-05 Eh   :
          :  -> wf. convergence          0.1000000E-03 e    :
          :  Broyden damping             0.4000000          :
          ...................................................

 iter      E             dE          RMSdq      gap      omega  full diag
   1    -82.8289677 -0.828290E+02  0.408E+00    3.20       0.0  T
   2    -82.9837438 -0.154776E+00  0.244E+00    3.32       1.0  T
   3    -82.9901543 -0.641051E-02  0.128E+00    3.47       1.0  T
   4    -82.9950086 -0.485429E-02  0.465E-01    3.35       1.0  T
   5    -83.0050326 -0.100240E-01  0.111E-01    3.39       1.0  T
   6    -83.0052482 -0.215570E-03  0.610E-02    3.39       1.0  T
   7    -83.0053244 -0.762464E-04  0.235E-02    3.39       1.0  T
   8    -83.0053262 -0.180274E-05  0.108E-02    3.39       1.3  T
   9    -83.0053296 -0.336928E-05  0.309E-03    3.39       4.7  T
  10    -83.0053297 -0.806786E-07  0.135E-03    3.39      10.7  T
  11    -83.0053297 -0.280673E-07  0.601E-04    3.39      24.0  T
  12    -83.0053297 -0.484260E-08  0.267E-04    3.39      54.0  T

   *** convergence criteria satisfied after 12 iterations ***

         #    Occupation            Energy/Eh            Energy/eV
      -------------------------------------------------------------
         1        2.0000           -0.7458704             -20.2962
       ...           ...                  ...                  ...
        67        2.0000           -0.4126668             -11.2292
        68        2.0000           -0.4059222             -11.0457
        69        2.0000           -0.4032923             -10.9741
        70        2.0000           -0.3973032             -10.8112
        71        2.0000           -0.3831016             -10.4247
        72        2.0000           -0.3800442             -10.3415
        73        2.0000           -0.3629623              -9.8767 (HOMO)
        74                         -0.2384215              -6.4878 (LUMO)
        75                         -0.2348297              -6.3900
        76                         -0.2289045              -6.2288
        77                         -0.2273179              -6.1856
        78                         -0.2189285              -5.9573
       ...                                ...                  ...
       135                          0.6869512              18.6929
      -------------------------------------------------------------
                  HL-Gap            0.1245408 Eh            3.3889 eV
             Fermi-level           -0.3006919 Eh           -8.1822 eV

 SCC (total)                   0 d,  0 h,  0 min,  0.301 sec
 SCC setup                      ...        0 min,  0.001 sec (  0.172%)
 Dispersion                     ...        0 min,  0.015 sec (  4.836%)
 classical contributions        ...        0 min,  0.000 sec (  0.088%)
 integral evaluation            ...        0 min,  0.008 sec (  2.776%)
 iterations                     ...        0 min,  0.243 sec ( 80.527%)
 molecular gradient             ...        0 min,  0.034 sec ( 11.272%)
 printout                       ...        0 min,  0.001 sec (  0.256%)

         :::::::::::::::::::::::::::::::::::::::::::::::::::::
         ::                     SUMMARY                     ::
         :::::::::::::::::::::::::::::::::::::::::::::::::::::
         :: total energy             -81.911553826596 Eh    ::
         :: gradient norm              0.078213720587 Eh/a0 ::
         :: HOMO-LUMO gap              3.388928553929 eV    ::
         ::.................................................::
         :: SCC energy               -83.005329721347 Eh    ::
         :: -> isotropic ES            0.109604683600 Eh    ::
         :: -> anisotropic ES          0.007380573930 Eh    ::
         :: -> anisotropic XC          0.021139406087 Eh    ::
         :: -> dispersion             -0.058900847292 Eh    ::
         :: repulsion energy           1.093038924919 Eh    ::
         :: add. restraining           0.000000000000 Eh    ::
         :: total charge               0.000000000000 e     ::
         :::::::::::::::::::::::::::::::::::::::::::::::::::::

           -------------------------------------------------
          |                Property Printout                |
           -------------------------------------------------

    * Orbital Energies and Occupations

         #    Occupation            Energy/Eh            Energy/eV
      -------------------------------------------------------------
         1        2.0000           -0.7458704             -20.2962
       ...           ...                  ...                  ...
        61        2.0000           -0.4474369             -12.1754
        62        2.0000           -0.4395803             -11.9616
        63        2.0000           -0.4264555             -11.6044
        64        2.0000           -0.4211275             -11.4595
        65        2.0000           -0.4177118             -11.3665
        66        2.0000           -0.4139440             -11.2640
        67        2.0000           -0.4126668             -11.2292
        68        2.0000           -0.4059222             -11.0457
        69        2.0000           -0.4032923             -10.9741
        70        2.0000           -0.3973032             -10.8112
        71        2.0000           -0.3831016             -10.4247
        72        2.0000           -0.3800442             -10.3415
        73        2.0000           -0.3629623              -9.8767 (HOMO)
        74                         -0.2384215              -6.4878 (LUMO)
        75                         -0.2348297              -6.3900
        76                         -0.2289045              -6.2288
        77                         -0.2273179              -6.1856
        78                         -0.2189285              -5.9573
        79                         -0.2021892              -5.5018
        80                         -0.1650275              -4.4906
        81                         -0.1096746              -2.9844
        82                         -0.0799445              -2.1754
        83                         -0.0505465              -1.3754
        84                         -0.0326957              -0.8897
       ...                                ...                  ...
       135                          0.6869512              18.6929
      -------------------------------------------------------------
                  HL-Gap            0.1245408 Eh            3.3889 eV
             Fermi-level           -0.3006919 Eh           -8.1822 eV

     #   Z          covCN         q      C6AA      α(0)
     1   6 C        2.917    -0.036    28.906     8.816
     2   6 C        2.912    -0.039    28.976     8.827
     3   6 C        2.905    -0.038    28.939     8.821
     4   6 C        3.107    -0.015    28.245     8.708
     5   6 C        3.044    -0.040    28.945     8.824
     6   6 C        3.085     0.029    27.270     8.560
     7   7 N        2.762    -0.120    23.616     7.218
     8   6 C        3.061     0.044    26.951     8.513
     9   6 C        2.901    -0.051    29.260     8.869
    10   6 C        3.809     0.043    19.843     6.341
    11   7 N        2.733    -0.122    23.653     7.223
    12   6 C        2.768     0.263    22.561     7.779
    13   8 O        0.859    -0.431    22.312     6.333
    14   6 C        3.749    -0.026    21.097     6.551
    15   7 N        2.731    -0.091    23.024     7.127
    16   6 C        2.765     0.259    22.647     7.794
    17   8 O        0.859    -0.440    22.489     6.358
    18   6 C        3.796     0.025    20.166     6.394
    19   6 C        3.809    -0.053    21.519     6.603
    20   6 C        3.700    -0.052    21.682     6.659
    21   6 C        2.975     0.003    27.948     8.672
    22   6 C        2.927    -0.042    29.046     8.838
    23   6 C        2.908    -0.054    29.333     8.881
    24   6 C        2.979     0.122    25.325     8.255
    25   8 O        1.711    -0.287    18.774     5.850
    26   6 C        3.782     0.214    17.275     5.921
    27   8 O        1.703    -0.293    18.866     5.864
    28   6 C        2.982     0.129    25.170     8.230
    29   6 C        2.914    -0.061    29.525     8.910
    30   1 H        0.924     0.041     2.429     2.437
    31   1 H        0.925     0.068     2.112     2.273
    32   1 H        0.924     0.052     2.297     2.370
    33   1 H        0.924     0.054     2.271     2.357
    34   1 H        0.925     0.095     1.827     2.114
    35   1 H        0.924     0.069     2.091     2.261
    36   1 H        0.925     0.080     1.977     2.199
    37   1 H        0.924     0.052     2.296     2.370
    38   1 H        0.925     0.072     2.062     2.245
    39   1 H        0.860     0.159     1.341     1.814
    40   1 H        0.925     0.028     2.614     2.528
    41   1 H        0.925     0.031     2.576     2.510
    42   1 H        0.926     0.062     2.174     2.306
    43   1 H        0.926     0.062     2.170     2.304
    44   1 H        0.925     0.062     2.180     2.309
    45   1 H        0.925     0.030     2.588     2.516
    46   1 H        0.924     0.059     2.211     2.325
    47   1 H        0.924     0.052     2.297     2.370
    48   1 H        0.925     0.034     2.535     2.490

 Mol. C6AA /au·bohr⁶  :      29318.042399
 Mol. C8AA /au·bohr⁸  :     708191.225449
 Mol. α(0) /au        :        265.836683


Wiberg/Mayer (AO) data.
largest (>0.10) Wiberg bond orders for each atom

 ---------------------------------------------------------------------------
     #   Z sym  total        # sym  WBO       # sym  WBO       # sym  WBO
 ---------------------------------------------------------------------------
     1   6 C    3.987 --     9 C    1.487     2 C    1.371    41 H    0.972
     2   6 C    3.990 --     3 C    1.513     1 C    1.371    45 H    0.972
     3   6 C    3.987 --     2 C    1.513     4 C    1.314    48 H    0.970
                             9 C    0.116
     4   6 C    3.982 --     3 C    1.314     8 C    1.261     5 C    1.207
     5   6 C    3.969 --     6 C    1.540     4 C    1.207    19 C    1.014
     6   6 C    3.951 --     5 C    1.540     7 N    1.187    10 C    0.995
     7   7 N    3.519 --     6 C    1.187     8 C    1.146    39 H    0.946
     8   6 C    3.950 --     9 C    1.344     4 C    1.261     7 N    1.146
     9   6 C    3.986 --     1 C    1.487     8 C    1.344    40 H    0.969
                             3 C    0.116
    10   6 C    3.968 --     6 C    0.995    21 C    0.967    11 N    0.955
                            46 H    0.946
    11   7 N    3.461 --    12 C    1.234    18 C    0.968    10 C    0.955
                            13 O    0.196
    12   6 C    3.959 --    13 O    1.683    11 N    1.234    14 C    0.969
    13   8 O    2.006 --    12 C    1.683    11 N    0.196
    14   6 C    3.973 --    15 N    0.996    12 C    0.969    36 H    0.951
                            35 H    0.943
    15   7 N    3.498 --    16 C    1.258    14 C    0.996    20 C    0.989
                            17 O    0.199
    16   6 C    3.958 --    17 O    1.662    15 N    1.258    18 C    0.951
    17   8 O    1.991 --    16 C    1.662    15 N    0.199
    18   6 C    3.968 --    19 C    0.981    11 N    0.968    16 C    0.951
                            47 H    0.938
    19   6 C    3.989 --     5 C    1.014    18 C    0.981    38 H    0.965
                            37 H    0.959
    20   6 C    3.959 --    15 N    0.989    33 H    0.978    32 H    0.977
                            34 H    0.972
    21   6 C    3.980 --    22 C    1.441    29 C    1.381    10 C    0.967
    22   6 C    3.985 --    21 C    1.441    23 C    1.396    42 H    0.966
    23   6 C    3.984 --    24 C    1.429    22 C    1.396    43 H    0.967
    24   6 C    3.924 --    23 C    1.429    28 C    1.302    25 O    1.006
    25   8 O    2.181 --    24 C    1.006    26 C    0.992
    26   6 C    3.920 --    25 O    0.992    31 H    0.969    30 H    0.963
                            27 O    0.954
    27   8 O    2.183 --    28 C    1.037    26 C    0.954
    28   6 C    3.933 --    29 C    1.415    24 C    1.302    27 O    1.037
    29   6 C    3.984 --    28 C    1.415    21 C    1.381    44 H    0.964
    30   1 H    0.998 --    26 C    0.963
    31   1 H    0.995 --    26 C    0.969
    32   1 H    0.997 --    20 C    0.977
    33   1 H    0.997 --    20 C    0.978
    34   1 H    0.990 --    20 C    0.972
    35   1 H    0.995 --    14 C    0.943
    36   1 H    0.993 --    14 C    0.951
    37   1 H    0.997 --    19 C    0.959
    38   1 H    0.994 --    19 C    0.965
    39   1 H    0.974 --     7 N    0.946
    40   1 H    0.999 --     9 C    0.969
    41   1 H    0.999 --     1 C    0.972
    42   1 H    0.996 --    22 C    0.966
    43   1 H    0.996 --    23 C    0.967
    44   1 H    0.996 --    29 C    0.964
    45   1 H    0.999 --     2 C    0.972
    46   1 H    0.994 --    10 C    0.946
    47   1 H    0.997 --    18 C    0.938
    48   1 H    0.998 --     3 C    0.970
 ---------------------------------------------------------------------------

Topologies differ in total number of bonds
Writing topology from bond orders to xtbtopo.mol

molecular dipole:
                 x           y           z       tot (Debye)
 q only:        0.092      -0.590      -0.109
   full:        0.298      -0.927      -0.215       2.535
molecular quadrupole (traceless):
                xx          xy          yy          xz          yz          zz
 q only:       61.744     -66.418     -88.129       1.302     -41.463      26.386
  q+dip:      123.401     -89.780    -148.011      -4.065     -65.608      24.609
   full:      124.879     -87.821    -148.496      -4.003     -67.216      23.617


           -------------------------------------------------
          | TOTAL ENERGY              -81.911553826596 Eh   |
          | GRADIENT NORM               0.078213720587 Eh/α |
          | HOMO-LUMO GAP               3.388928553929 eV   |
           -------------------------------------------------

------------------------------------------------------------------------
 * finished run on 2023/12/24 at 05:32:10.666     
------------------------------------------------------------------------
 total:
 * wall-time:     0 d,  0 h,  0 min,  0.426 sec
 *  cpu-time:     0 d,  0 h,  0 min,  5.885 sec
 * ratio c/w:    13.801 speedup
 SCF:
 * wall-time:     0 d,  0 h,  0 min,  0.302 sec
 *  cpu-time:     0 d,  0 h,  0 min,  4.235 sec
 * ratio c/w:    14.021 speedup

