      -----------------------------------------------------------      
     |                   =====================                   |     
     |                           x T B                           |     
     |                   =====================                   |     
     |                         S. Grimme                         |     
     |          Mulliken Center for Theoretical Chemistry        |     
     |                    University of Bonn                     |     
      -----------------------------------------------------------      

   * xtb version 6.6.0 (2ccbbd7) compiled by 'conda@6fe65c42fc39' on 2023-02-10

   xtb is free software: you can redistribute it and/or modify it under
   the terms of the GNU Lesser General Public License as published by
   the Free Software Foundation, either version 3 of the License, or
   (at your option) any later version.
   
   xtb is distributed in the hope that it will be useful,
   but WITHOUT ANY WARRANTY; without even the implied warranty of
   MERCHANTABILITY or FITNESS FOR A PARTICULAR PURPOSE.  See the
   GNU Lesser General Public License for more details.
   
   Cite this work as:
   * C. Bannwarth, E. Caldeweyher, S. Ehlert, A. Hansen, P. Pracht,
     J. Seibert, S. Spicher, S. Grimme, WIREs Comput. Mol. Sci., 2020, 11,
     e01493. DOI: 10.1002/wcms.1493
   
   for GFN2-xTB:
   * C. Bannwarth, S. Ehlert and S. Grimme., J. Chem. Theory Comput., 2019,
     15, 1652-1671. DOI: 10.1021/acs.jctc.8b01176
   for GFN1-xTB:
   * S. Grimme, C. Bannwarth, P. Shushkov, J. Chem. Theory Comput., 2017,
     13, 1989-2009. DOI: 10.1021/acs.jctc.7b00118
   for GFN0-xTB:
   * P. Pracht, E. Caldeweyher, S. Ehlert, S. Grimme, ChemRxiv, 2019, preprint.
     DOI: 10.26434/chemrxiv.8326202.v1
   for GFN-FF:
   * S. Spicher and S. Grimme, Angew. Chem. Int. Ed., 2020, 59, 15665-15673.
     DOI: 10.1002/anie.202004239
   
   for ALPB and GBSA implicit solvation:
   * S. Ehlert, M. Stahn, S. Spicher, S. Grimme, J. Chem. Theory Comput.,
     2021, 17, 4250-4261. DOI: 10.1021/acs.jctc.1c00471
   
   for DFT-D4:
   * E. Caldeweyher, C. Bannwarth and S. Grimme, J. Chem. Phys., 2017,
     147, 034112. DOI: 10.1063/1.4993215
   * E. Caldeweyher, S. Ehlert, A. Hansen, H. Neugebauer, S. Spicher,
     C. Bannwarth and S. Grimme, J. Chem. Phys., 2019, 150, 154122.
     DOI: 10.1063/1.5090222
   * E. Caldeweyher, J.-M. Mewes, S. Ehlert and S. Grimme, Phys. Chem. Chem. Phys.
     2020, 22, 8499-8512. DOI: 10.1039/D0CP00502A
   
   for sTDA-xTB:
   * S. Grimme and C. Bannwarth, J. Chem. Phys., 2016, 145, 054103.
     DOI: 10.1063/1.4959605
   
   in the mass-spec context:
   * V. Asgeirsson, C. Bauer and S. Grimme, Chem. Sci., 2017, 8, 4879.
     DOI: 10.1039/c7sc00601b
   * J. Koopman and S. Grimme, ACS Omega 2019, 4, 12, 15120-15133.
     DOI: 10.1021/acsomega.9b02011
   
   for metadynamics refer to:
   * S. Grimme, J. Chem. Theory Comput., 2019, 155, 2847-2862
     DOI: 10.1021/acs.jctc.9b00143
   
   for SPH calculations refer to:
   * S. Spicher and S. Grimme, J. Chem. Theory Comput., 2021, 17, 1701-1714
     DOI: 10.1021/acs.jctc.0c01306
   
   with help from (in alphabetical order)
   P. Atkinson, C. Bannwarth, F. Bohle, G. Brandenburg, E. Caldeweyher
   M. Checinski, S. Dohm, S. Ehlert, S. Ehrlich, I. Gerasimov, C. Hölzer
   A. Katbashev, J. Koopman, C. Lavigne, S. Lehtola, F. März, M. Müller,
   F. Musil, H. Neugebauer, J. Pisarek, C. Plett, P. Pracht, F. Pultar,
   J. Seibert, P. Shushkov, S. Spicher, M. Stahn, M. Steiner, T. Strunk,
   J. Stückrath, T. Rose, and J. Unsleber
   
 * started run on 2024/01/02 at 19:09:50.507     

           -------------------------------------------------
          |                Calculation Setup                |
           -------------------------------------------------

          program call               : xtb gau_xtb.xyz --chrg 0 --uhf 0 --grad
          hostname                   : node40
          coordinate file            : gau_xtb.xyz
          omp threads                :                    12

   ID    Z sym.   atoms
    1    6 C      1, 4, 7, 9, 11, 13-21
    2    7 N      2, 5, 8, 10, 12
    3    8 O      3, 6
    4    9 F      22
    5    1 H      23-36

           -------------------------------------------------
          |                 G F N 2 - x T B                 |
           -------------------------------------------------

        Reference                      10.1021/acs.jctc.8b01176
      * Hamiltonian:
        H0-scaling (s, p, d)           1.850000    2.230000    2.230000
        zeta-weighting                 0.500000
      * Dispersion:
        s8                             2.700000
        a1                             0.520000
        a2                             5.000000
        s9                             5.000000
      * Repulsion:
        kExp                           1.500000    1.000000
        rExp                           1.000000
      * Coulomb:
        alpha                          2.000000
        third order                    shell-resolved
        anisotropic                    true
        a3                             3.000000
        a5                             4.000000
        cn-shift                       1.200000
        cn-exp                         4.000000
        max-rad                        5.000000


          ...................................................
          :                      SETUP                      :
          :.................................................:
          :  # basis functions                 102          :
          :  # atomic orbitals                 102          :
          :  # shells                           58          :
          :  # electrons                       114          :
          :  max. iterations                   250          :
          :  Hamiltonian                  GFN2-xTB          :
          :  restarted?                      false          :
          :  GBSA solvation                  false          :
          :  PC potential                    false          :
          :  electronic temp.          300.0000000     K    :
          :  accuracy                    1.0000000          :
          :  -> integral cutoff          0.2500000E+02      :
          :  -> integral neglect         0.1000000E-07      :
          :  -> SCF convergence          0.1000000E-05 Eh   :
          :  -> wf. convergence          0.1000000E-03 e    :
          :  Broyden damping             0.4000000          :
          ...................................................

 iter      E             dE          RMSdq      gap      omega  full diag
   1    -65.2781237 -0.652781E+02  0.438E+00    3.05       0.0  T
   2    -65.4281987 -0.150075E+00  0.265E+00    3.09       1.0  T
   3    -65.4441524 -0.159537E-01  0.135E+00    3.11       1.0  T
   4    -65.4484672 -0.431479E-02  0.401E-01    2.81       1.0  T
   5    -65.4539000 -0.543285E-02  0.107E-01    2.84       1.0  T
   6    -65.4539616 -0.615519E-04  0.528E-02    2.86       1.0  T
   7    -65.4539846 -0.230402E-04  0.230E-02    2.88       1.0  T
   8    -65.4539887 -0.409678E-05  0.768E-03    2.89       2.2  T
   9    -65.4539897 -0.102402E-05  0.343E-03    2.89       4.9  T
  10    -65.4539898 -0.895014E-07  0.134E-03    2.89      12.4  T
  11    -65.4539898 -0.275226E-07  0.556E-04    2.89      30.0  T
  12    -65.4539899 -0.374702E-08  0.191E-04    2.89      87.4  T

   *** convergence criteria satisfied after 12 iterations ***

         #    Occupation            Energy/Eh            Energy/eV
      -------------------------------------------------------------
         1        2.0000           -0.8086270             -22.0039
       ...           ...                  ...                  ...
        51        2.0000           -0.4197455             -11.4219
        52        2.0000           -0.4149410             -11.2911
        53        2.0000           -0.4057883             -11.0421
        54        2.0000           -0.3930996             -10.6968
        55        2.0000           -0.3900959             -10.6150
        56        2.0000           -0.3697503             -10.0614
        57        2.0000           -0.3651038              -9.9350 (HOMO)
        58                         -0.2589415              -7.0462 (LUMO)
        59                         -0.2290503              -6.2328
        60                         -0.2271826              -6.1820
        61                         -0.2094039              -5.6982
        62                         -0.1930599              -5.2534
       ...                                ...                  ...
       102                          0.6780330              18.4502
      -------------------------------------------------------------
                  HL-Gap            0.1061624 Eh            2.8888 eV
             Fermi-level           -0.3120226 Eh           -8.4906 eV

 SCC (total)                   0 d,  0 h,  0 min,  0.064 sec
 SCC setup                      ...        0 min,  0.001 sec (  0.795%)
 Dispersion                     ...        0 min,  0.001 sec (  1.449%)
 classical contributions        ...        0 min,  0.000 sec (  0.177%)
 integral evaluation            ...        0 min,  0.003 sec (  5.421%)
 iterations                     ...        0 min,  0.055 sec ( 85.438%)
 molecular gradient             ...        0 min,  0.004 sec (  5.887%)
 printout                       ...        0 min,  0.000 sec (  0.459%)

         :::::::::::::::::::::::::::::::::::::::::::::::::::::
         ::                     SUMMARY                     ::
         :::::::::::::::::::::::::::::::::::::::::::::::::::::
         :: total energy             -64.636172462647 Eh    ::
         :: gradient norm              0.070764520539 Eh/a0 ::
         :: HOMO-LUMO gap              2.888825254049 eV    ::
         ::.................................................::
         :: SCC energy               -65.453989850931 Eh    ::
         :: -> isotropic ES            0.087124502220 Eh    ::
         :: -> anisotropic ES          0.009758723768 Eh    ::
         :: -> anisotropic XC          0.023125594348 Eh    ::
         :: -> dispersion             -0.037192269168 Eh    ::
         :: repulsion energy           0.817809667116 Eh    ::
         :: add. restraining           0.000000000000 Eh    ::
         :: total charge               0.000000000000 e     ::
         :::::::::::::::::::::::::::::::::::::::::::::::::::::

           -------------------------------------------------
          |                Property Printout                |
           -------------------------------------------------

    * Orbital Energies and Occupations

         #    Occupation            Energy/Eh            Energy/eV
      -------------------------------------------------------------
         1        2.0000           -0.8086270             -22.0039
       ...           ...                  ...                  ...
        45        2.0000           -0.4683639             -12.7448
        46        2.0000           -0.4612122             -12.5502
        47        2.0000           -0.4522029             -12.3051
        48        2.0000           -0.4418049             -12.0221
        49        2.0000           -0.4282003             -11.6519
        50        2.0000           -0.4260795             -11.5942
        51        2.0000           -0.4197455             -11.4219
        52        2.0000           -0.4149410             -11.2911
        53        2.0000           -0.4057883             -11.0421
        54        2.0000           -0.3930996             -10.6968
        55        2.0000           -0.3900959             -10.6150
        56        2.0000           -0.3697503             -10.0614
        57        2.0000           -0.3651038              -9.9350 (HOMO)
        58                         -0.2589415              -7.0462 (LUMO)
        59                         -0.2290503              -6.2328
        60                         -0.2271826              -6.1820
        61                         -0.2094039              -5.6982
        62                         -0.1930599              -5.2534
        63                         -0.1055611              -2.8725
        64                         -0.0925885              -2.5195
        65                         -0.0251380              -0.6840
        66                         -0.0068680              -0.1869
        67                          0.0172117               0.4684
        68                          0.0265292               0.7219
       ...                                ...                  ...
       102                          0.6780330              18.4502
      -------------------------------------------------------------
                  HL-Gap            0.1061624 Eh            2.8888 eV
             Fermi-level           -0.3120226 Eh           -8.4906 eV

     #   Z          covCN         q      C6AA      α(0)
     1   6 C        2.872     0.128    25.201     8.229
     2   7 N        2.781    -0.126    23.733     7.235
     3   8 O        1.705    -0.275    18.559     5.817
     4   6 C        2.917    -0.070    29.737     8.942
     5   7 N        1.893    -0.271    27.881     7.828
     6   8 O        1.706    -0.268    18.446     5.799
     7   6 C        2.917    -0.071    29.779     8.949
     8   7 N        1.850    -0.301    28.658     7.934
     9   6 C        2.857     0.133    25.092     8.210
    10   7 N        1.833    -0.277    28.022     7.845
    11   6 C        2.921    -0.061    29.517     8.909
    12   7 N        2.643    -0.245    26.400     7.631
    13   6 C        2.969    -0.004    28.119     8.698
    14   6 C        3.635     0.038    20.321     6.487
    15   6 C        3.811    -0.071    21.843     6.653
    16   6 C        3.193     0.153    24.226     8.026
    17   6 C        3.083    -0.017    28.332     8.726
    18   6 C        3.266     0.162    23.406     7.808
    19   6 C        2.879     0.167    24.397     8.097
    20   6 C        2.812     0.330    21.397     7.579
    21   6 C        3.644     0.034    20.337     6.483
    22   9 F        0.791    -0.193    11.164     3.947
    23   1 H        0.860     0.164     1.311     1.794
    24   1 H        0.926     0.041     2.430     2.438
    25   1 H        0.926     0.040     2.453     2.449
    26   1 H        0.926     0.050     2.319     2.382
    27   1 H        0.859     0.194     1.137     1.670
    28   1 H        0.860     0.174     1.246     1.749
    29   1 H        0.923     0.037     2.485     2.465
    30   1 H        0.925     0.065     2.142     2.289
    31   1 H        0.924     0.042     2.419     2.432
    32   1 H        0.924     0.094     1.840     2.121
    33   1 H        0.924     0.053     2.288     2.365
    34   1 H        0.924     0.046     2.376     2.410
    35   1 H        0.925     0.063     2.160     2.298
    36   1 H        0.924     0.041     2.437     2.441

 Mol. C6AA /au·bohr⁶  :      16281.277534
 Mol. C8AA /au·bohr⁸  :     383183.531961
 Mol. α(0) /au        :        197.135449


Wiberg/Mayer (AO) data.
largest (>0.10) Wiberg bond orders for each atom

 ---------------------------------------------------------------------------
     #   Z sym  total        # sym  WBO       # sym  WBO       # sym  WBO
 ---------------------------------------------------------------------------
     1   6 C    3.936 --     4 C    1.407    13 C    1.285     6 O    1.063
     2   7 N    3.537 --    16 C    1.202    17 C    1.150    23 H    0.940
                             5 N    0.103
     3   8 O    2.216 --     9 C    1.054    14 C    0.985
     4   6 C    3.987 --     7 C    1.414     1 C    1.407    24 H    0.963
     5   7 N    3.031 --    16 C    1.546    18 C    1.232     2 N    0.103
     6   8 O    2.224 --     1 C    1.063    21 C    0.980
     7   6 C    3.986 --     4 C    1.414     9 C    1.388    25 H    0.967
                            13 C    0.103
     8   7 N    3.041 --    19 C    1.358    20 C    1.341
     9   6 C    3.935 --     7 C    1.388    11 C    1.331     3 O    1.054
    10   7 N    3.048 --    20 C    1.452    18 C    1.272
    11   6 C    3.987 --    13 C    1.480     9 C    1.331    26 H    0.964
    12   7 N    3.345 --    19 C    1.228    28 H    0.950    27 H    0.941
    13   6 C    3.980 --    11 C    1.480     1 C    1.285    15 C    0.987
                             7 C    0.103
    14   6 C    3.946 --     3 O    0.985    30 H    0.979    31 H    0.977
                            29 H    0.977
    15   6 C    3.991 --    16 C    1.021    13 C    0.987    33 H    0.954
                            32 H    0.949
    16   6 C    3.956 --     5 N    1.546     2 N    1.202    15 C    1.021
    17   6 C    3.944 --    18 C    1.276    19 C    1.227     2 N    1.150
    18   6 C    3.976 --    17 C    1.276    10 N    1.272     5 N    1.232
    19   6 C    3.971 --     8 N    1.358    12 N    1.228    17 C    1.227
    20   6 C    3.904 --    10 N    1.452     8 N    1.341    22 F    0.978
    21   6 C    3.944 --    35 H    0.980     6 O    0.980    34 H    0.977
                            36 H    0.976
    22   9 F    1.136 --    20 C    0.978
    23   1 H    0.973 --     2 N    0.940
    24   1 H    0.998 --     4 C    0.963
    25   1 H    0.998 --     7 C    0.967
    26   1 H    0.997 --    11 C    0.964
    27   1 H    0.961 --    12 N    0.941
    28   1 H    0.969 --    12 N    0.950
    29   1 H    0.998 --    14 C    0.977
    30   1 H    0.995 --    14 C    0.979
    31   1 H    0.998 --    14 C    0.977
    32   1 H    0.990 --    15 C    0.949
    33   1 H    0.996 --    15 C    0.954
    34   1 H    0.998 --    21 C    0.977
    35   1 H    0.995 --    21 C    0.980
    36   1 H    0.998 --    21 C    0.976
 ---------------------------------------------------------------------------

Topologies differ in total number of bonds
Writing topology from bond orders to xtbtopo.mol

molecular dipole:
                 x           y           z       tot (Debye)
 q only:        0.804       1.168      -2.751
   full:        0.770       1.548      -3.600      10.151
molecular quadrupole (traceless):
                xx          xy          yy          xz          yz          zz
 q only:      130.743      29.349     173.231      57.268       6.237    -303.974
  q+dip:      168.022      34.170     227.407      54.960       8.759    -395.429
   full:      166.031      34.784     228.778      55.188       9.426    -394.809


           -------------------------------------------------
          | TOTAL ENERGY              -64.636172462647 Eh   |
          | GRADIENT NORM               0.070764520539 Eh/α |
          | HOMO-LUMO GAP               2.888825254049 eV   |
           -------------------------------------------------

------------------------------------------------------------------------
 * finished run on 2024/01/02 at 19:09:50.653     
------------------------------------------------------------------------
 total:
 * wall-time:     0 d,  0 h,  0 min,  0.146 sec
 *  cpu-time:     0 d,  0 h,  0 min,  2.721 sec
 * ratio c/w:    18.671 speedup
 SCF:
 * wall-time:     0 d,  0 h,  0 min,  0.064 sec
 *  cpu-time:     0 d,  0 h,  0 min,  1.469 sec
 * ratio c/w:    22.936 speedup

