      -----------------------------------------------------------      
     |                   =====================                   |     
     |                           x T B                           |     
     |                   =====================                   |     
     |                         S. Grimme                         |     
     |          Mulliken Center for Theoretical Chemistry        |     
     |                    University of Bonn                     |     
      -----------------------------------------------------------      

   * xtb version 6.6.0 (2ccbbd7) compiled by 'conda@6fe65c42fc39' on 2023-02-10

   xtb is free software: you can redistribute it and/or modify it under
   the terms of the GNU Lesser General Public License as published by
   the Free Software Foundation, either version 3 of the License, or
   (at your option) any later version.
   
   xtb is distributed in the hope that it will be useful,
   but WITHOUT ANY WARRANTY; without even the implied warranty of
   MERCHANTABILITY or FITNESS FOR A PARTICULAR PURPOSE.  See the
   GNU Lesser General Public License for more details.
   
   Cite this work as:
   * C. Bannwarth, E. Caldeweyher, S. Ehlert, A. Hansen, P. Pracht,
     J. Seibert, S. Spicher, S. Grimme, WIREs Comput. Mol. Sci., 2020, 11,
     e01493. DOI: 10.1002/wcms.1493
   
   for GFN2-xTB:
   * C. Bannwarth, S. Ehlert and S. Grimme., J. Chem. Theory Comput., 2019,
     15, 1652-1671. DOI: 10.1021/acs.jctc.8b01176
   for GFN1-xTB:
   * S. Grimme, C. Bannwarth, P. Shushkov, J. Chem. Theory Comput., 2017,
     13, 1989-2009. DOI: 10.1021/acs.jctc.7b00118
   for GFN0-xTB:
   * P. Pracht, E. Caldeweyher, S. Ehlert, S. Grimme, ChemRxiv, 2019, preprint.
     DOI: 10.26434/chemrxiv.8326202.v1
   for GFN-FF:
   * S. Spicher and S. Grimme, Angew. Chem. Int. Ed., 2020, 59, 15665-15673.
     DOI: 10.1002/anie.202004239
   
   for ALPB and GBSA implicit solvation:
   * S. Ehlert, M. Stahn, S. Spicher, S. Grimme, J. Chem. Theory Comput.,
     2021, 17, 4250-4261. DOI: 10.1021/acs.jctc.1c00471
   
   for DFT-D4:
   * E. Caldeweyher, C. Bannwarth and S. Grimme, J. Chem. Phys., 2017,
     147, 034112. DOI: 10.1063/1.4993215
   * E. Caldeweyher, S. Ehlert, A. Hansen, H. Neugebauer, S. Spicher,
     C. Bannwarth and S. Grimme, J. Chem. Phys., 2019, 150, 154122.
     DOI: 10.1063/1.5090222
   * E. Caldeweyher, J.-M. Mewes, S. Ehlert and S. Grimme, Phys. Chem. Chem. Phys.
     2020, 22, 8499-8512. DOI: 10.1039/D0CP00502A
   
   for sTDA-xTB:
   * S. Grimme and C. Bannwarth, J. Chem. Phys., 2016, 145, 054103.
     DOI: 10.1063/1.4959605
   
   in the mass-spec context:
   * V. Asgeirsson, C. Bauer and S. Grimme, Chem. Sci., 2017, 8, 4879.
     DOI: 10.1039/c7sc00601b
   * J. Koopman and S. Grimme, ACS Omega 2019, 4, 12, 15120-15133.
     DOI: 10.1021/acsomega.9b02011
   
   for metadynamics refer to:
   * S. Grimme, J. Chem. Theory Comput., 2019, 155, 2847-2862
     DOI: 10.1021/acs.jctc.9b00143
   
   for SPH calculations refer to:
   * S. Spicher and S. Grimme, J. Chem. Theory Comput., 2021, 17, 1701-1714
     DOI: 10.1021/acs.jctc.0c01306
   
   with help from (in alphabetical order)
   P. Atkinson, C. Bannwarth, F. Bohle, G. Brandenburg, E. Caldeweyher
   M. Checinski, S. Dohm, S. Ehlert, S. Ehrlich, I. Gerasimov, C. Hölzer
   A. Katbashev, J. Koopman, C. Lavigne, S. Lehtola, F. März, M. Müller,
   F. Musil, H. Neugebauer, J. Pisarek, C. Plett, P. Pracht, F. Pultar,
   J. Seibert, P. Shushkov, S. Spicher, M. Stahn, M. Steiner, T. Strunk,
   J. Stückrath, T. Rose, and J. Unsleber
   
 * started run on 2024/01/11 at 21:53:57.800     

           -------------------------------------------------
          |                Calculation Setup                |
           -------------------------------------------------

          program call               : xtb gau_xtb.xyz --chrg 0 --uhf 0 --grad
          hostname                   : node32
          coordinate file            : gau_xtb.xyz
          omp threads                :                    24

   ID    Z sym.   atoms
    1    1 H      1, 8-14, 27-37, 43-49, 54-58, 66-76, 88-96, 106-114,
                  122-130, 135-137, 146-156, 164-170, 179-186, 197-205,
                  230-244, 246, 247, 249, 250
    2    7 N      2, 15, 38, 50, 59, 77, 97, 115, 131, 138, 157, 171, 178,
                  187, 193, 196, 214, 220, 222, 227
    3    6 C      3, 4, 6, 16, 17, 19-25, 39, 40, 42, 51, 52, 60, 61, 63-65,
                  78, 79, 81-87, 98, 99, 101-103, 116, 117, 119-121, 132,
                  133, 139, 140, 142, 143, 145, 158, 159, 161, 163, 172, 173,
                  175, 176, 188, 189, 191, 192, 194, 195, 211, 213, 215, 217,
                  219, 221, 223-225, 228, 229
    4    8 O      5, 7, 18, 26, 41, 53, 62, 80, 100, 104, 105, 118, 134, 141,
                  160, 162, 174, 177, 190, 207-210, 212, 216, 218, 226, 245,
                  248
    5   16 S      144, 206

molecular fragmentation (1/2 indicates fragments):
111111111111122222222222222222222222222222222222222222222222222222222222
222222222222222222222222222222222222222222222222222222222222222222222222
222222222222222222222222222222222222222222222222222222222222222222222222
2222222222222222222222222222222222
# atoms in fragment 1/2:    13   237
 fragment masses (1/2) :       89.09     1722.94
CMA distance (Bohr)    :  17.348
constraining FC (au)   :  0.0500

           -------------------------------------------------
          |                 G F N 2 - x T B                 |
           -------------------------------------------------

        Reference                      10.1021/acs.jctc.8b01176
      * Hamiltonian:
        H0-scaling (s, p, d)           1.850000    2.230000    2.230000
        zeta-weighting                 0.500000
      * Dispersion:
        s8                             2.700000
        a1                             0.520000
        a2                             5.000000
        s9                             5.000000
      * Repulsion:
        kExp                           1.500000    1.000000
        rExp                           1.000000
      * Coulomb:
        alpha                          2.000000
        third order                    shell-resolved
        anisotropic                    true
        a3                             3.000000
        a5                             4.000000
        cn-shift                       1.200000
        cn-exp                         4.000000
        max-rad                        5.000000


          ...................................................
          :                      SETUP                      :
          :.................................................:
          :  # basis functions                 634          :
          :  # atomic orbitals                 632          :
          :  # shells                          376          :
          :  # electrons                       704          :
          :  max. iterations                   250          :
          :  Hamiltonian                  GFN2-xTB          :
          :  restarted?                      false          :
          :  GBSA solvation                  false          :
          :  PC potential                    false          :
          :  electronic temp.          300.0000000     K    :
          :  accuracy                    1.0000000          :
          :  -> integral cutoff          0.2500000E+02      :
          :  -> integral neglect         0.1000000E-07      :
          :  -> SCF convergence          0.1000000E-05 Eh   :
          :  -> wf. convergence          0.1000000E-03 e    :
          :  Broyden damping             0.4000000          :
          ...................................................

 iter      E             dE          RMSdq      gap      omega  full diag
   1   -406.5421912 -0.406542E+03  0.470E+00    1.87       0.0  T
   2   -407.5269650 -0.984774E+00  0.253E+00    0.16       1.0  T
   3   -399.8950403  0.763192E+01  0.337E+00    0.11       1.0  T
   4   -407.4141612 -0.751912E+01  0.157E+00    0.56       1.0  T
   5   -407.2338760  0.180285E+00  0.105E+00    0.02       1.0  T
   6   -407.5380502 -0.304174E+00  0.759E-01    0.39       1.0  T
   7   -407.5745204 -0.364702E-01  0.606E-01    0.38       1.0  T
   8   -407.5916190 -0.170987E-01  0.528E-01    0.40       1.0  T
   9   -407.6070881 -0.154690E-01  0.441E-01    0.41       1.0  T
  10   -407.6242380 -0.171499E-01  0.327E-01    0.18       1.0  T
  11   -407.6294384 -0.520047E-02  0.287E-01    0.23       1.0  T
  12   -406.3296948  0.129974E+01  0.167E+00    0.08       1.0  T
  13   -404.8748133  0.145488E+01  0.219E+00    0.04       1.0  T
  14   -405.0167949 -0.141982E+00  0.214E+00    0.04       1.0  T
  15   -405.0113547  0.544017E-02  0.215E+00    0.04       1.0  T
  16   -405.2752358 -0.263881E+00  0.207E+00    0.05       1.0  T
  17   -406.0571011 -0.781865E+00  0.178E+00    0.03       1.0  T
  18   -406.4680871 -0.410986E+00  0.163E+00    0.11       1.0  T
  19   -406.5174791 -0.493921E-01  0.161E+00    0.10       1.0  T
  20   -406.4610253  0.564538E-01  0.164E+00    0.11       1.0  T
  21   -406.3447459  0.116279E+00  0.168E+00    0.08       1.0  T
  22   -406.4234052 -0.786593E-01  0.167E+00    0.11       1.0  T
  23   -406.1846260  0.238779E+00  0.177E+00    0.06       1.0  T
  24   -406.3367556 -0.152130E+00  0.171E+00    0.08       1.0  T
  25   -406.2609995  0.757560E-01  0.174E+00    0.07       1.0  T
  26   -406.3189419 -0.579424E-01  0.174E+00    0.08       1.0  T
  27   -406.2142618  0.104680E+00  0.178E+00    0.06       1.0  T
  28   -406.4639886 -0.249727E+00  0.168E+00    0.11       1.0  T
  29   -406.5372601 -0.732715E-01  0.161E+00    0.08       1.0  T
  30   -407.6463373 -0.110908E+01  0.373E-01    0.09       1.0  T
  31   -406.4985508  0.114779E+01  0.168E+00    0.08       1.0  T
  32   -406.5041767 -0.562583E-02  0.167E+00    0.07       1.0  T
  33   -406.5025094  0.166727E-02  0.169E+00    0.06       1.0  T
  34   -406.4909366  0.115728E-01  0.173E+00    0.06       1.0  T
  35   -406.4928790 -0.194241E-02  0.173E+00    0.05       1.0  T
  36   -406.5023461 -0.946712E-02  0.173E+00    0.05       1.0  T
  37   -406.4957038  0.664224E-02  0.172E+00    0.05       1.0  T
  38   -406.5090548 -0.133510E-01  0.171E+00    0.05       1.0  T
  39   -406.5110158 -0.196098E-02  0.172E+00    0.05       1.0  T
  40   -406.5058367  0.517908E-02  0.172E+00    0.05       1.0  T
  41   -406.4808560  0.249808E-01  0.178E+00    0.04       1.0  T
  42   -406.4989992 -0.181432E-01  0.175E+00    0.04       1.0  T
  43   -406.4980954  0.903824E-03  0.175E+00    0.04       1.0  T
  44   -406.4983021 -0.206731E-03  0.175E+00    0.04       1.0  T
  45   -406.4985392 -0.237025E-03  0.176E+00    0.04       1.0  T
  46   -406.5109578 -0.124186E-01  0.173E+00    0.05       1.0  T
  47   -406.6499433 -0.138986E+00  0.132E+00    0.05       1.0  T
  48   -406.6320325  0.179109E-01  0.168E+00    0.01       1.0  T
  49   -402.4191548  0.421288E+01  0.279E+00    0.03       1.0  T
  50   -402.6597656 -0.240611E+00  0.275E+00    0.04       1.0  T
  51   -402.8378883 -0.178123E+00  0.272E+00    0.05       1.0  T
  52   -403.2417513 -0.403863E+00  0.287E+00    0.06       1.0  T
  53   -403.3026565 -0.609051E-01  0.282E+00    0.03       1.0  T
  54   -403.2957080  0.694845E-02  0.283E+00    0.04       1.0  T
  55   -403.2762403  0.194677E-01  0.282E+00    0.03       1.0  T
  56   -406.9055124 -0.362927E+01  0.123E+00    0.08       1.0  T
  57   -406.6127555  0.292757E+00  0.159E+00    0.04       1.0  T
  58   -397.6754281  0.893733E+01  0.369E+00    0.02       1.0  T
  59   -402.8991377 -0.522371E+01  0.281E+00    0.04       1.0  T
  60   -407.6284283 -0.472929E+01  0.408E-01    0.19       1.0  T
  61   -396.4392401  0.111892E+02  0.398E+00    0.13       1.0  T
  62   -399.9008176 -0.346158E+01  0.359E+00    0.08       1.0  T
  63   -400.0147780 -0.113960E+00  0.354E+00    0.01       1.0  T
  64   -396.4369340  0.357784E+01  0.427E+00    0.15       1.0  T
  65   -396.1717308  0.265203E+00  0.431E+00    0.32       1.0  T
  66   -396.2383917 -0.666609E-01  0.428E+00    0.30       1.0  T
  67   -396.2115336  0.268581E-01  0.429E+00    0.29       1.0  T
  68   -396.2155652 -0.403154E-02  0.429E+00    0.29       1.0  T
  69   -396.2107956  0.476952E-02  0.429E+00    0.28       1.0  T
  70   -396.1987541  0.120416E-01  0.429E+00    0.26       1.0  T
  71   -396.2534142 -0.546601E-01  0.427E+00    0.29       1.0  T
  72   -394.6391838  0.161423E+01  0.430E+00    0.09       1.0  T
  73   -396.6408752 -0.200169E+01  0.405E+00    0.07       1.0  T
  74   -405.1352727 -0.849440E+01  0.241E+00    0.04       1.0  T
  75   -406.5112352 -0.137596E+01  0.186E+00    0.01       1.0  T
  76   -406.5440846 -0.328494E-01  0.184E+00    0.01       1.0  T
  77   -406.5125734  0.315112E-01  0.164E+00    0.07       1.0  T
  78   -393.4062930  0.131063E+02  0.414E+00    0.12       1.0  T
  79   -399.6841183 -0.627783E+01  0.321E+00    0.03       1.0  T
  80   -405.1562346 -0.547212E+01  0.232E+00    0.11       1.0  T
  81   -406.4968781 -0.134064E+01  0.193E+00    0.01       1.0  T
  82   -406.3183498  0.178528E+00  0.198E+00    0.17       1.0  T
  83   -407.6227125 -0.130436E+01  0.343E-01    0.69       1.0  T
  84   -406.4968684  0.112584E+01  0.180E+00    0.15       1.0  T
  85   -407.6274264 -0.113056E+01  0.300E-01    0.39       1.0  T
  86   -406.3078683  0.131956E+01  0.194E+00    0.30       1.0  T
  87   -406.6823079 -0.374440E+00  0.146E+00    0.10       1.0  T
  88   -407.6508347 -0.968527E+00  0.269E-01    0.09       1.0  T
  89   -402.9095593  0.474128E+01  0.292E+00    0.12       1.0  T
  90   -402.8365544  0.730049E-01  0.291E+00    0.14       1.0  T
  91   -406.2705280 -0.343397E+01  0.198E+00    0.49       1.0  T
  92   -406.2797470 -0.921900E-02  0.198E+00    0.46       1.0  T
  93   -406.3309753 -0.512283E-01  0.192E+00    0.22       1.0  T
  94   -406.2885974  0.423779E-01  0.197E+00    0.38       1.0  T
  95   -406.2727563  0.158412E-01  0.199E+00    0.51       1.0  T
  96   -406.2639450  0.881126E-02  0.201E+00    0.49       1.0  T
  97   -406.2709396 -0.699464E-02  0.199E+00    0.52       1.0  T
  98   -406.2751874 -0.424779E-02  0.199E+00    0.49       1.0  T
  99   -406.2665403  0.864712E-02  0.200E+00    0.42       1.0  T
 100   -406.2772330 -0.106927E-01  0.199E+00    0.23       1.0  T
 101   -406.2786458 -0.141277E-02  0.199E+00    0.22       1.0  T
 102   -406.2996841 -0.210383E-01  0.196E+00    0.20       1.0  T
 103   -406.3156960 -0.160119E-01  0.195E+00    0.18       1.0  T
 104   -406.3666401 -0.509441E-01  0.191E+00    0.13       1.0  T
 105   -406.8974859 -0.530846E+00  0.146E+00    0.07       1.0  T
 106   -406.6187017  0.278784E+00  0.170E+00    0.02       1.0  T
 107   -407.3118495 -0.693148E+00  0.101E+00    0.05       1.0  T
 108   -406.4090895  0.902760E+00  0.187E+00    0.12       1.0  T
 109   -407.6020301 -0.119294E+01  0.464E-01    0.24       1.0  T
 110   -406.3687907  0.123324E+01  0.183E+00    0.09       1.0  T
 111   -406.3037119  0.650789E-01  0.196E+00    0.21       1.0  T
 112   -407.6058498 -0.130214E+01  0.441E-01    0.31       1.0  T
 113   -407.2303552  0.375495E+00  0.108E+00    0.01       1.0  T
 114   -407.5938052 -0.363450E+00  0.477E-01    0.13       1.0  T
 115   -407.5007464  0.930588E-01  0.698E-01    0.07       1.0  T
 116   -407.5477275 -0.469811E-01  0.601E-01    0.09       1.0  T
 117   -407.5874401 -0.397126E-01  0.502E-01    0.12       1.0  T
 118   -407.5958248 -0.838464E-02  0.476E-01    0.14       1.0  T
 119   -407.6094662 -0.136414E-01  0.424E-01    0.22       1.0  T
 120   -407.6107279 -0.126169E-02  0.416E-01    0.25       1.0  T
 121   -407.6102664  0.461493E-03  0.419E-01    0.24       1.0  T
 122   -407.6005101  0.975628E-02  0.459E-01    0.15       1.0  T
 123   -407.5860688  0.144413E-01  0.504E-01    0.12       1.0  T
 124   -407.5898710 -0.380222E-02  0.494E-01    0.13       1.0  T
 125   -407.5958712 -0.600015E-02  0.475E-01    0.14       1.0  T
 126   -407.5915083  0.436285E-02  0.484E-01    0.13       1.0  T
 127   -407.6017445 -0.102362E-01  0.447E-01    0.14       1.0  T
 128   -407.6030628 -0.131831E-02  0.433E-01    0.13       1.0  T
 129   -407.6075285 -0.446568E-02  0.411E-01    0.13       1.0  T
 130   -407.5708191  0.367094E-01  0.504E-01    0.08       1.0  T
 131   -407.6086384 -0.378193E-01  0.399E-01    0.13       1.0  T
 132   -407.2900007  0.318638E+00  0.967E-01    0.02       1.0  T
 133   -407.6212150 -0.331214E+00  0.348E-01    0.24       1.0  T
 134   -406.9301892  0.691026E+00  0.134E+00    0.02       1.0  T
 135   -407.6243950 -0.694206E+00  0.323E-01    0.32       1.0  T
 136   -406.8445216  0.779873E+00  0.143E+00    0.02       1.0  T
 137   -407.6263600 -0.781838E+00  0.308E-01    0.33       1.0  T
 138   -407.0532384  0.573122E+00  0.123E+00    0.01       1.0  T
 139   -407.6287325 -0.575494E+00  0.290E-01    0.30       1.0  T
 140   -407.1341870  0.494545E+00  0.115E+00    0.02       1.0  T
 141   -407.6288624 -0.494675E+00  0.290E-01    0.32       1.0  T
 142   -407.4026888  0.226174E+00  0.796E-01    0.03       1.0  T
 143   -407.6343467 -0.231658E+00  0.263E-01    0.23       1.0  T
 144   -407.5881757  0.461710E-01  0.461E-01    0.09       1.0  T
 145   -407.6318116 -0.436359E-01  0.271E-01    0.34       1.0  T
 146   -407.6237630  0.804855E-02  0.379E-01    0.07       1.0  T
 147   -406.9593233  0.664440E+00  0.123E+00    0.11       1.0  T
 148   -407.6253586 -0.666035E+00  0.411E-01    0.82       1.0  T
 149   -406.9716244  0.653734E+00  0.120E+00    0.01       1.0  T
 150   -407.6322442 -0.660620E+00  0.286E-01    0.26       1.0  T
 151   -407.6342796 -0.203542E-02  0.272E-01    0.29       1.0  T
 152   -407.6730405 -0.387609E-01  0.138E-01    0.08       1.0  T
 153   -407.4101101  0.262930E+00  0.743E-01    0.02       1.0  T
 154   -407.6529478 -0.242838E+00  0.277E-01    0.15       1.0  T
 155   -407.5351829  0.117765E+00  0.560E-01    0.01       1.0  T
 156   -407.6595479 -0.124365E+00  0.188E-01    0.12       1.0  T
 157   -406.9108852  0.748663E+00  0.125E+00    0.08       1.0  T
 158   -407.2175514 -0.306666E+00  0.961E-01    0.05       1.0  T
 159   -407.6306485 -0.413097E+00  0.331E-01    0.35       1.0  T
 160   -406.7105566  0.920092E+00  0.142E+00    0.08       1.0  T
 161   -407.6410885 -0.930532E+00  0.266E-01    0.13       1.0  T
 162   -406.7110172  0.930071E+00  0.137E+00    0.05       1.0  T
 163   -406.7989710 -0.879538E-01  0.135E+00    0.13       1.0  T
 164   -406.8837143 -0.847433E-01  0.125E+00    0.06       1.0  T
 165   -407.6619172 -0.778203E+00  0.232E-01    0.08       1.0  T
 166   -406.3736150  0.128830E+01  0.165E+00    0.13       1.0  T
 167   -407.6332055 -0.125959E+01  0.283E-01    0.15       1.0  T
 168   -405.3605951  0.227261E+01  0.203E+00    0.03       1.0  T
 169   -401.3198031  0.404079E+01  0.311E+00    0.02       1.0  T
 170   -406.8060154 -0.548621E+01  0.141E+00    0.02       1.0  T
 171   -407.6216453 -0.815630E+00  0.398E-01    0.42       1.0  T
 172   -404.5496845  0.307196E+01  0.261E+00    0.22       1.0  T
 173   -399.2993947  0.525029E+01  0.360E+00    0.05       1.0  T
 174   -407.6147367 -0.831534E+01  0.416E-01    0.92       1.0  T
 175   -407.6190732 -0.433650E-02  0.379E-01    0.41       1.0  T
 176   -407.6251045 -0.603132E-02  0.345E-01    0.19       1.0  T
 177   -407.6233617  0.174278E-02  0.353E-01    0.28       1.0  T
 178   -407.6214998  0.186189E-02  0.368E-01    0.45       1.0  T
 179   -407.6226506 -0.115079E-02  0.355E-01    0.46       1.0  T
 180   -407.6235840 -0.933327E-03  0.348E-01    0.45       1.0  T
 181   -407.6245918 -0.100781E-02  0.341E-01    0.45       1.0  T
 182   -407.6258760 -0.128421E-02  0.330E-01    0.47       1.0  T
 183   -407.6264744 -0.598445E-03  0.325E-01    0.47       1.0  T
 184   -407.6266659 -0.191434E-03  0.323E-01    0.46       1.0  T
 185   -407.6276974 -0.103154E-02  0.314E-01    0.39       1.0  T
 186   -407.6332875 -0.559010E-02  0.289E-01    0.23       1.0  T
 187   -407.5531364  0.801511E-01  0.541E-01    0.03       1.0  T
 188   -406.8341824  0.718954E+00  0.129E+00    0.15       1.0  T
 189   -407.6185311 -0.784349E+00  0.471E-01    0.49       1.0  T
 190   -406.6916984  0.926833E+00  0.137E+00    0.13       1.0  T
 191   -407.6243840 -0.932686E+00  0.396E-01    0.27       1.0  T
 192   -406.5193261  0.110506E+01  0.142E+00    0.07       1.0  T
 193   -407.6000319 -0.108071E+01  0.528E-01    0.10       1.0  T
 194   -406.8452515  0.754780E+00  0.130E+00    0.08       1.0  T
 195   -407.1929775 -0.347726E+00  0.111E+00    0.01       1.0  T
 196   -404.5336343  0.265934E+01  0.252E+00    0.17       1.0  T
 197   -406.5452391 -0.201160E+01  0.164E+00    0.02       1.0  T
 198   -407.6087215 -0.106348E+01  0.444E-01    0.21       1.0  T
 199   -406.8060718  0.802650E+00  0.149E+00    0.02       1.0  T
 200   -407.5988385 -0.792767E+00  0.454E-01    0.12       1.0  T
 201   -407.6294393 -0.306007E-01  0.340E-01    0.18       1.0  T
 202   -406.4956164  0.113382E+01  0.161E+00    0.14       1.0  T
 203   -404.2445500  0.225107E+01  0.235E+00    0.18       1.0  T
 204   -398.3722241  0.587233E+01  0.360E+00    0.03       1.0  T
 205   -397.2130328  0.115919E+01  0.380E+00    0.10       1.0  T
 206   -397.1651592  0.478735E-01  0.382E+00    0.08       1.0  T
 207   -392.5148441  0.465032E+01  0.440E+00    0.20       1.0  T
 208   -392.5696727 -0.548285E-01  0.438E+00    0.18       1.0  T
 209   -388.7563981  0.381327E+01  0.469E+00    0.04       1.0  T
 210   -392.2776683 -0.352127E+01  0.441E+00    0.15       1.0  T
 211   -392.2776600  0.831762E-05  0.441E+00    0.15       1.0  T
 212   -392.4393835 -0.161724E+00  0.438E+00    0.17       1.0  T
 213   -387.2297749  0.520961E+01  0.492E+00    0.20       1.0  T
 214   -392.3852065 -0.515543E+01  0.442E+00    0.18       1.0  T
 215   -388.5480412  0.383717E+01  0.477E+00    0.05       1.0  T
 216   -388.9120871 -0.364046E+00  0.474E+00    0.03       1.0  T
 217   -391.7366239 -0.282454E+01  0.450E+00    0.08       1.0  T
 218   -387.6919021  0.404472E+01  0.484E+00    0.09       1.0  T
 219   -387.0647424  0.627160E+00  0.489E+00    0.14       1.0  T
 220   -387.1292828 -0.645405E-01  0.488E+00    0.14       1.0  T
 221   -392.5119553 -0.538267E+01  0.443E+00    0.10       1.0  T
 222   -387.0537286  0.545823E+01  0.490E+00    0.14       1.0  T
 223   -387.6912401 -0.637511E+00  0.485E+00    0.09       1.0  T
 224   -388.3141696 -0.622929E+00  0.480E+00    0.06       1.0  T
 225   -384.6579160  0.365625E+01  0.506E+00    0.04       1.0  T
 226   -385.1305059 -0.472590E+00  0.504E+00    0.05       1.0  T
 227   -383.5124583  0.161805E+01  0.513E+00    0.00       1.0  T
 228   -388.4254245 -0.491297E+01  0.479E+00    0.05       1.0  T
 229   -381.0597477  0.736568E+01  0.530E+00    0.08       1.0  T
 230   -393.0711132 -0.120114E+02  0.433E+00    0.11       1.0  T
 231   -379.5724464  0.134987E+02  0.545E+00    0.25       1.0  T
 232   -386.9509834 -0.737854E+01  0.493E+00    0.14       1.0  T
 233   -388.5619041 -0.161092E+01  0.479E+00    0.04       1.0  T
 234   -386.2234565  0.233845E+01  0.498E+00    0.12       1.0  T
 235   -386.3525395 -0.129083E+00  0.498E+00    0.13       1.0  T
 236   -388.0880528 -0.173551E+01  0.483E+00    0.06       1.0  T
 237   -380.3575530  0.773050E+01  0.536E+00    0.12       1.0  T
 238   -392.1797516 -0.118222E+02  0.450E+00    0.17       1.0  T
 239   -379.4933319  0.126864E+02  0.546E+00    0.27       1.0  T
 240   -379.6925587 -0.199227E+00  0.541E+00    0.23       1.0  T
 241   -387.0166141 -0.732406E+01  0.491E+00    0.12       1.0  T
 242   -379.6578234  0.735879E+01  0.542E+00    0.24       1.0  T
 243   -379.5120794  0.145744E+00  0.545E+00    0.30       1.0  T
 244   -379.4992533  0.128261E-01  0.545E+00    0.31       1.0  T
 245   -387.5583757 -0.805912E+01  0.486E+00    0.08       1.0  T
 246   -379.5297775  0.802860E+01  0.545E+00    0.43       1.0  T
 247   -379.9624263 -0.432649E+00  0.540E+00    0.15       1.0  T
 248   -379.5943235  0.368103E+00  0.543E+00    0.34       1.0  T
 249   -379.7067392 -0.112416E+00  0.542E+00    0.22       1.0  T
 250   -379.8942515 -0.187512E+00  0.541E+00    0.15       1.0  T

   *** convergence criteria cannot be satisfied within 250 iterations ***

         #    Occupation            Energy/Eh            Energy/eV
      -------------------------------------------------------------
         1        2.0000           -0.9505580             -25.8660
       ...           ...                  ...                  ...
       346        2.0000           -0.3050940              -8.3020
       347        2.0000           -0.3040011              -8.2723
       348        2.0000           -0.2999695              -8.1626
       349        2.0000           -0.2961599              -8.0589
       350        1.9999           -0.2913535              -7.9281
       351        1.9935           -0.2868575              -7.8058
       352        1.9034           -0.2842547              -7.7350 (HOMO)
       353        0.1023           -0.2786483              -7.5824 (LUMO)
       354        0.0009           -0.2741436              -7.4598
       355        0.0000           -0.2697501              -7.3403
       356        0.0000           -0.2682578              -7.2997
       357                         -0.2654446              -7.2231
       ...                                ...                  ...
       632                          1.4169948              38.5584
      -------------------------------------------------------------
                  HL-Gap            0.0056064 Eh            0.1526 eV
             Fermi-level           -0.2814232 Eh           -7.6579 eV

 SCC (total)                   0 d,  0 h,  3 min,  5.385 sec
 SCC setup                      ...        0 min,  0.031 sec (  0.017%)
 Dispersion                     ...        0 min,  0.053 sec (  0.029%)
 classical contributions        ...        0 min,  0.031 sec (  0.017%)
 integral evaluation            ...        0 min,  0.055 sec (  0.030%)
 iterations                     ...        3 min,  4.763 sec ( 99.664%)
 molecular gradient             ...        0 min,  0.429 sec (  0.231%)
 printout                       ...        0 min,  0.023 sec (  0.012%)

########################################################################
[ERROR] Program stopped due to fatal error
-3- Single point calculation terminated
-2- xtb_calculator_singlepoint: Electronic structure method terminated
-1- scf: Self consistent charge iterator did not converge
########################################################################
