      -----------------------------------------------------------      
     |                   =====================                   |     
     |                           x T B                           |     
     |                   =====================                   |     
     |                         S. Grimme                         |     
     |          Mulliken Center for Theoretical Chemistry        |     
     |                    University of Bonn                     |     
      -----------------------------------------------------------      

   * xtb version 6.5.1 (b24c23e) compiled by 'conda@728c89f4b128' on 2022-07-12

   xtb is free software: you can redistribute it and/or modify it under
   the terms of the GNU Lesser General Public License as published by
   the Free Software Foundation, either version 3 of the License, or
   (at your option) any later version.
   
   xtb is distributed in the hope that it will be useful,
   but WITHOUT ANY WARRANTY; without even the implied warranty of
   MERCHANTABILITY or FITNESS FOR A PARTICULAR PURPOSE.  See the
   GNU Lesser General Public License for more details.
   
   Cite this work as:
   * C. Bannwarth, E. Caldeweyher, S. Ehlert, A. Hansen, P. Pracht,
     J. Seibert, S. Spicher, S. Grimme, WIREs Comput. Mol. Sci., 2020, 11,
     e01493. DOI: 10.1002/wcms.1493
   
   for GFN2-xTB:
   * C. Bannwarth, S. Ehlert and S. Grimme., J. Chem. Theory Comput., 2019,
     15, 1652-1671. DOI: 10.1021/acs.jctc.8b01176
   for GFN1-xTB:
   * S. Grimme, C. Bannwarth, P. Shushkov, J. Chem. Theory Comput., 2017,
     13, 1989-2009. DOI: 10.1021/acs.jctc.7b00118
   for GFN0-xTB:
   * P. Pracht, E. Caldeweyher, S. Ehlert, S. Grimme, ChemRxiv, 2019, preprint.
     DOI: 10.26434/chemrxiv.8326202.v1
   for GFN-FF:
   * S. Spicher and S. Grimme, Angew. Chem. Int. Ed., 2020, 59, 15665-15673.
     DOI: 10.1002/anie.202004239
   
   for ALPB and GBSA implicit solvation:
   * S. Ehlert, M. Stahn, S. Spicher, S. Grimme, J. Chem. Theory Comput.,
     2021, 17, 4250-4261. DOI: 10.1021/acs.jctc.1c00471
   
   for DFT-D4:
   * E. Caldeweyher, C. Bannwarth and S. Grimme, J. Chem. Phys., 2017,
     147, 034112. DOI: 10.1063/1.4993215
   * E. Caldeweyher, S. Ehlert, A. Hansen, H. Neugebauer, S. Spicher,
     C. Bannwarth and S. Grimme, J. Chem. Phys., 2019, 150, 154122.
     DOI: 10.1063/1.5090222
   * E. Caldeweyher, J.-M. Mewes, S. Ehlert and S. Grimme, Phys. Chem. Chem. Phys.
     2020, 22, 8499-8512. DOI: 10.1039/D0CP00502A
   
   for sTDA-xTB:
   * S. Grimme and C. Bannwarth, J. Chem. Phys., 2016, 145, 054103.
     DOI: 10.1063/1.4959605
   
   in the mass-spec context:
   * V. Asgeirsson, C. Bauer and S. Grimme, Chem. Sci., 2017, 8, 4879.
     DOI: 10.1039/c7sc00601b
   * J. Koopman and S. Grimme, ACS Omega 2019, 4, 12, 15120-15133.
     DOI: 10.1021/acsomega.9b02011
   
   for metadynamics refer to:
   * S. Grimme, J. Chem. Theory Comput., 2019, 155, 2847-2862
     DOI: 10.1021/acs.jctc.9b00143
   
   for SPH calculations refer to:
   * S. Spicher and S. Grimme, J. Chem. Theory Comput., 2021, 17, 1701-1714
     DOI: 10.1021/acs.jctc.0c01306
   
   with help from (in alphabetical order)
   P. Atkinson, C. Bannwarth, F. Bohle, G. Brandenburg, E. Caldeweyher
   M. Checinski, S. Dohm, S. Ehlert, S. Ehrlich, I. Gerasimov, C. Hölzer
   A. Katbashev, J. Koopman, C. Lavigne, S. Lehtola, F. März, M. Müller,
   F. Musil, H. Neugebauer, J. Pisarek, C. Plett, P. Pracht, F. Pultar,
   J. Seibert, P. Shushkov, S. Spicher, M. Stahn, M. Steiner, T. Strunk,
   J. Stückrath, T. Rose, and J. Unsleber
   
 * started run on 2022/11/09 at 12:34:17.370     

           -------------------------------------------------
          |                Calculation Setup                |
           -------------------------------------------------

          program call               : xtb gau_xtb.xyz --chrg 0 --uhf 0 --grad
          hostname                   : node28
          coordinate file            : gau_xtb.xyz
          omp threads                :                    24

   ID    Z sym.   atoms
    1    1 H      1, 16-25, 33-39, 51-61, 69-79, 88-100, 109-121, 134-142,
                  151-158, 167-179, 188-197, 199, 201, 205, 207, 213, 215,
                  217, 219, 224-226, 231, 233, 234, 238, 239, 241, 242, 244,
                  245, 247, 248, 250, 251, 253, 254, 256, 257
    2    7 N      2, 10, 26, 40, 62, 80, 101, 122, 143, 150, 159, 180, 210,
                  227, 237
    3    6 C      3, 4, 6-9, 11-15, 27, 28, 30-32, 41, 42, 44-50, 63, 64,
                  66-68, 81, 82, 84-87, 102, 103, 105-108, 123, 124, 126-132,
                  144, 145, 147, 148, 160, 161, 163-166, 181, 182, 184, 185,
                  187, 198, 200, 202, 204, 206, 208, 209, 211, 212, 214, 216,
                  218, 220-223, 229, 230, 232, 235
    4    8 O      5, 29, 43, 65, 83, 104, 125, 133, 146, 149, 162, 183, 228,
                  236, 240, 243, 246, 249, 252, 255
    5   16 S      186
    6   17 Cl     203

molecular fragmentation (1/2 indicates fragments):
111111111111111111111111111111111111111111111111111111111111222222222222
222222222222222222222222222222222222222222222222222222222222222222222222
222222222222222222222222222222222222222222222222222222222222222222222222
22222222222222222222222222222222222222222
# atoms in fragment 1/2:    60   197
 fragment masses (1/2) :      432.52     1333.08
CMA distance (Bohr)    :  15.360
constraining FC (au)   :  0.0500

           -------------------------------------------------
          |                 G F N 2 - x T B                 |
           -------------------------------------------------

        Reference                      10.1021/acs.jctc.8b01176
      * Hamiltonian:
        H0-scaling (s, p, d)           1.850000    2.230000    2.230000
        zeta-weighting                 0.500000
      * Dispersion:
        s8                             2.700000
        a1                             0.520000
        a2                             5.000000
        s9                             5.000000
      * Repulsion:
        kExp                           1.500000    1.000000
        rExp                           1.000000
      * Coulomb:
        alpha                          2.000000
        third order                    shell-resolved
        anisotropic                    true
        a3                             3.000000
        a5                             4.000000
        cn-shift                       1.200000
        cn-exp                         4.000000
        max-rad                        5.000000


          ...................................................
          :                      SETUP                      :
          :.................................................:
          :  # basis functions                 638          :
          :  # atomic orbitals                 636          :
          :  # shells                          382          :
          :  # electrons                       686          :
          :  max. iterations                   250          :
          :  Hamiltonian                  GFN2-xTB          :
          :  restarted?                      false          :
          :  GBSA solvation                  false          :
          :  PC potential                    false          :
          :  electronic temp.          300.0000000     K    :
          :  accuracy                    1.0000000          :
          :  -> integral cutoff          0.2500000E+02      :
          :  -> integral neglect         0.1000000E-07      :
          :  -> SCF convergence          0.1000000E-05 Eh   :
          :  -> wf. convergence          0.1000000E-03 e    :
          :  Broyden damping             0.4000000          :
          ...................................................

 iter      E             dE          RMSdq      gap      omega  full diag
   1   -390.1954830 -0.390195E+03  0.405E+00    1.69       0.0  T
   2   -390.8012213 -0.605738E+00  0.224E+00    1.24       1.0  T
   3   -390.8112131 -0.999185E-02  0.124E+00    1.16       1.0  T
   4   -390.8797742 -0.685610E-01  0.352E-01    1.00       1.0  T
   5   -390.9029694 -0.231953E-01  0.130E-01    1.00       1.0  T
   6   -390.9050313 -0.206184E-02  0.676E-02    1.02       1.0  T
   7   -390.9055600 -0.528697E-03  0.251E-02    1.01       1.0  T
   8   -390.9055729 -0.129634E-04  0.113E-02    1.01       1.0  T
   9   -390.9055821 -0.912725E-05  0.602E-03    1.01       1.0  T
  10   -390.9055847 -0.267541E-05  0.345E-03    1.01       1.8  T
  11   -390.9055855 -0.709294E-06  0.235E-03    1.01       2.7  T
  12   -390.9055858 -0.370362E-06  0.147E-03    1.01       4.2  T
  13   -390.9055860 -0.159359E-06  0.829E-04    1.01       7.5  T
  14   -390.9055860 -0.587187E-07  0.374E-04    1.01      16.7  T

   *** convergence criteria satisfied after 14 iterations ***

         #    Occupation            Energy/Eh            Energy/eV
      -------------------------------------------------------------
         1        2.0000           -1.0677674             -29.0554
       ...           ...                  ...                  ...
       337        2.0000           -0.3667128              -9.9788
       338        2.0000           -0.3643648              -9.9149
       339        2.0000           -0.3524633              -9.5910
       340        2.0000           -0.3511027              -9.5540
       341        2.0000           -0.3502351              -9.5304
       342        2.0000           -0.3471716              -9.4470
       343        2.0000           -0.3340828              -9.0909 (HOMO)
       344                         -0.2970101              -8.0821 (LUMO)
       345                         -0.2941036              -8.0030
       346                         -0.2868158              -7.8047
       347                         -0.2807700              -7.6401
       348                         -0.2781690              -7.5694
       ...                                ...                  ...
       636                          0.7539105              20.5149
      -------------------------------------------------------------
                  HL-Gap            0.0370727 Eh            1.0088 eV
             Fermi-level           -0.3155683 Eh           -8.5870 eV

 SCC (total)                   0 d,  0 h,  0 min, 18.489 sec
 SCC setup                      ...        0 min,  0.002 sec (  0.012%)
 Dispersion                     ...        0 min,  0.036 sec (  0.194%)
 classical contributions        ...        0 min,  0.003 sec (  0.016%)
 integral evaluation            ...        0 min,  0.079 sec (  0.425%)
 iterations                     ...        0 min, 17.841 sec ( 96.491%)
 molecular gradient             ...        0 min,  0.488 sec (  2.638%)
 printout                       ...        0 min,  0.041 sec (  0.222%)

         :::::::::::::::::::::::::::::::::::::::::::::::::::::
         ::                     SUMMARY                     ::
         :::::::::::::::::::::::::::::::::::::::::::::::::::::
         :: total energy            -384.642928827910 Eh    ::
         :: gradient norm              0.900850185307 Eh/a0 ::
         :: HOMO-LUMO gap              1.008798277127 eV    ::
         ::.................................................::
         :: SCC energy              -390.905586047186 Eh    ::
         :: -> isotropic ES            0.707334513865 Eh    ::
         :: -> anisotropic ES          0.025077826813 Eh    ::
         :: -> anisotropic XC          0.131711685524 Eh    ::
         :: -> dispersion             -0.338313217286 Eh    ::
         :: repulsion energy           6.231161208445 Eh    ::
         :: add. restraining           0.000000000000 Eh    ::
         :: total charge              -0.000000000314 e     ::
         :::::::::::::::::::::::::::::::::::::::::::::::::::::

           -------------------------------------------------
          |                Property Printout                |
           -------------------------------------------------

    * Orbital Energies and Occupations

         #    Occupation            Energy/Eh            Energy/eV
      -------------------------------------------------------------
         1        2.0000           -1.0677674             -29.0554
       ...           ...                  ...                  ...
       331        2.0000           -0.3962313             -10.7820
       332        2.0000           -0.3900484             -10.6138
       333        2.0000           -0.3881083             -10.5610
       334        2.0000           -0.3822263             -10.4009
       335        2.0000           -0.3769283             -10.2567
       336        2.0000           -0.3681547             -10.0180
       337        2.0000           -0.3667128              -9.9788
       338        2.0000           -0.3643648              -9.9149
       339        2.0000           -0.3524633              -9.5910
       340        2.0000           -0.3511027              -9.5540
       341        2.0000           -0.3502351              -9.5304
       342        2.0000           -0.3471716              -9.4470
       343        2.0000           -0.3340828              -9.0909 (HOMO)
       344                         -0.2970101              -8.0821 (LUMO)
       345                         -0.2941036              -8.0030
       346                         -0.2868158              -7.8047
       347                         -0.2807700              -7.6401
       348                         -0.2781690              -7.5694
       349                         -0.2735657              -7.4441
       350                         -0.2712931              -7.3823
       351                         -0.2677681              -7.2863
       352                         -0.2660405              -7.2393
       353                         -0.2642759              -7.1913
       354                         -0.2611248              -7.1056
       ...                                ...                  ...
       636                          0.7539105              20.5149
      -------------------------------------------------------------
                  HL-Gap            0.0370727 Eh            1.0088 eV
             Fermi-level           -0.3155683 Eh           -8.5870 eV

     #   Z          covCN         q      C6AA      α(0)
     1   1 H        0.862     0.140     1.472     1.900
     2   7 N        2.631    -0.355    29.147     8.018
     3   6 C        3.790     0.025    20.163     6.395
     4   6 C        2.757     0.253    22.749     7.810
     5   8 O        0.860    -0.452    22.755     6.396
     6   6 C        3.819    -0.075    21.908     6.661
     7   6 C        3.050    -0.034    28.789     8.800
     8   6 C        3.026    -0.022    28.518     8.760
     9   6 C        3.110    -0.024    28.453     8.739
    10   7 N        2.771    -0.118    23.557     7.209
    11   6 C        3.077     0.039    27.051     8.527
    12   6 C        2.915    -0.046    29.133     8.851
    13   6 C        2.912    -0.064    29.584     8.919
    14   6 C        2.922    -0.056    29.382     8.889
    15   6 C        2.929    -0.047    29.155     8.855
    16   1 H        0.859     0.135     1.505     1.922
    17   1 H        0.929     0.064     2.154     2.295
    18   1 H        0.930     0.067     2.115     2.274
    19   1 H        0.930     0.060     2.197     2.318
    20   1 H        0.930     0.042     2.428     2.436
    21   1 H        0.861     0.156     1.359     1.826
    22   1 H        0.930     0.044     2.397     2.421
    23   1 H        0.929     0.038     2.477     2.461
    24   1 H        0.930     0.042     2.421     2.433
    25   1 H        0.930     0.042     2.423     2.434
    26   7 N        2.759    -0.123    23.677     7.227
    27   6 C        3.827     0.019    20.234     6.401
    28   6 C        2.756     0.266    22.503     7.768
    29   8 O        0.857    -0.483    23.404     6.486
    30   6 C        3.852    -0.067    21.746     6.633
    31   6 C        3.846    -0.077    21.934     6.662
    32   6 C        3.781    -0.010    20.770     6.492
    33   1 H        0.929     0.085     1.924     2.169
    34   1 H        0.929     0.053     2.285     2.364
    35   1 H        0.929     0.058     2.226     2.333
    36   1 H        0.929     0.064     2.154     2.295
    37   1 H        0.929     0.059     2.212     2.326
    38   1 H        0.930     0.054     2.274     2.358
    39   1 H        0.930     0.074     2.044     2.236
    40   7 N        2.684    -0.161    24.479     7.348
    41   6 C        3.799     0.018    20.277     6.411
    42   6 C        2.768     0.201    23.731     7.978
    43   8 O        0.857    -0.313    20.022     5.999
    44   6 C        3.823    -0.089    22.173     6.701
    45   6 C        2.970     0.006    27.890     8.663
    46   6 C        2.940    -0.046    29.142     8.854
    47   6 C        2.942    -0.052    29.300     8.878
    48   6 C        2.928    -0.041    29.020     8.834
    49   6 C        2.929    -0.042    29.039     8.837
    50   6 C        2.929    -0.043    29.058     8.840
    51   1 H        0.859     0.180     1.213     1.725
    52   1 H        0.929     0.140     1.464     1.892
    53   1 H        0.930     0.059     2.207     2.323
    54   1 H        0.930     0.091     1.865     2.135
    55   1 H        0.930     0.065     2.143     2.289
    56   1 H        0.929     0.026     2.642     2.542
    57   1 H        0.930     0.054     2.266     2.354
    58   1 H        0.929     0.033     2.540     2.492
    59   1 H        0.929     0.053     2.285     2.363
    60   1 H        0.928     0.058     2.221     2.330
    61   1 H        0.862     0.149     1.409     1.859
    62   7 N        2.634    -0.325    28.369     7.910
    63   6 C        3.796     0.024    20.177     6.396
    64   6 C        2.764     0.187    24.000     8.023
    65   8 O        0.856    -0.337    20.463     6.065
    66   6 C        3.861    -0.023    20.950     6.509
    67   6 C        3.772    -0.136    23.141     6.855
    68   6 C        3.772    -0.141    23.241     6.870
    69   1 H        0.859     0.146     1.432     1.875
    70   1 H        0.930     0.058     2.219     2.329
    71   1 H        0.930     0.064     2.150     2.293
    72   1 H        0.930     0.045     2.377     2.411
    73   1 H        0.930     0.055     2.258     2.350
    74   1 H        0.930     0.042     2.419     2.432
    75   1 H        0.930     0.069     2.091     2.261
    76   1 H        0.930     0.050     2.318     2.381
    77   1 H        0.930     0.043     2.409     2.427
    78   1 H        0.928     0.030     2.584     2.514
    79   1 H        0.862     0.143     1.453     1.888
    80   7 N        2.632    -0.347    28.949     7.991
    81   6 C        3.784     0.028    20.115     6.388
    82   6 C        2.761     0.187    23.990     8.021
    83   8 O        0.856    -0.334    20.413     6.058
    84   6 C        3.813    -0.086    22.123     6.695
    85   6 C        3.852    -0.024    20.975     6.514
    86   6 C        3.770    -0.132    23.076     6.846
    87   6 C        3.769    -0.137    23.173     6.860
    88   1 H        0.858     0.134     1.516     1.929
    89   1 H        0.929     0.080     1.983     2.202
    90   1 H        0.929     0.054     2.268     2.355
    91   1 H        0.929     0.071     2.071     2.250
    92   1 H        0.929     0.046     2.371     2.408
    93   1 H        0.930     0.045     2.387     2.416
    94   1 H        0.930     0.043     2.405     2.425
    95   1 H        0.930     0.046     2.368     2.406
    96   1 H        0.930     0.046     2.372     2.408
    97   1 H        0.930     0.043     2.410     2.427
    98   1 H        0.930     0.050     2.315     2.379
    99   1 H        0.928     0.044     2.395     2.420
   100   1 H        0.862     0.153     1.379     1.839
   101   7 N        2.628    -0.328    28.446     7.921
   102   6 C        3.786     0.027    20.140     6.392
   103   6 C        2.765     0.191    23.915     8.009
   104   8 O        0.856    -0.333    20.382     6.053
   105   6 C        3.820    -0.098    22.350     6.728
   106   6 C        3.856    -0.025    20.979     6.514
   107   6 C        3.770    -0.135    23.122     6.853
   108   6 C        3.771    -0.138    23.193     6.863
   109   1 H        0.856     0.126     1.578     1.968
   110   1 H        0.930     0.073     2.050     2.239
   111   1 H        0.930     0.065     2.135     2.285
   112   1 H        0.930     0.069     2.096     2.264
   113   1 H        0.929     0.050     2.316     2.380
   114   1 H        0.930     0.041     2.437     2.441
   115   1 H        0.930     0.049     2.335     2.389
   116   1 H        0.930     0.042     2.415     2.430
   117   1 H        0.930     0.049     2.335     2.389
   118   1 H        0.930     0.055     2.258     2.350
   119   1 H        0.930     0.039     2.467     2.456
   120   1 H        0.928     0.040     2.448     2.447
   121   1 H        0.862     0.155     1.366     1.831
   122   7 N        2.630    -0.348    28.957     7.992
   123   6 C        3.785     0.018    20.290     6.416
   124   6 C        2.750     0.257    22.680     7.798
   125   8 O        0.859    -0.429    22.275     6.328
   126   6 C        3.812    -0.088    22.160     6.700
   127   6 C        2.958    -0.008    28.219     8.713
   128   6 C        2.928    -0.044    29.084     8.844
   129   6 C        2.929    -0.047    29.176     8.858
   130   6 C        2.919    -0.058    29.432     8.896
   131   6 C        2.918    -0.077    29.927     8.971
   132   6 C        2.846     0.144    24.870     8.173
   133   8 O        1.650    -0.411    21.068     6.196
   134   1 H        0.859     0.125     1.583     1.971
   135   1 H        0.929     0.076     2.016     2.220
   136   1 H        0.930     0.065     2.136     2.285
   137   1 H        0.930     0.048     2.344     2.394
   138   1 H        0.929     0.048     2.342     2.393
   139   1 H        0.930     0.046     2.366     2.405
   140   1 H        0.930     0.062     2.172     2.305
   141   1 H        0.930     0.051     2.305     2.374
   142   1 H        0.797     0.295     0.736     1.349
   143   7 N        2.688    -0.166    24.594     7.365
   144   6 C        3.800     0.028    20.099     6.383
   145   6 C        2.762     0.192    23.905     8.007
   146   8 O        0.856    -0.303    19.830     5.970
   147   6 C        3.822    -0.118    22.741     6.786
   148   6 C        2.744     0.290    22.075     7.693
   149   8 O        0.860    -0.472    23.179     6.455
   150   7 N        2.638    -0.254    26.601     7.660
   151   1 H        0.857     0.170     1.273     1.768
   152   1 H        0.929     0.136     1.491     1.909
   153   1 H        0.930     0.064     2.154     2.295
   154   1 H        0.930     0.098     1.805     2.101
   155   1 H        0.860     0.197     1.124     1.661
   156   1 H        0.861     0.237     0.936     1.516
   157   1 H        0.928     0.056     2.248     2.345
   158   1 H        0.862     0.142     1.455     1.889
   159   7 N        2.631    -0.356    29.178     8.022
   160   6 C        3.785     0.018    20.286     6.415
   161   6 C        2.760     0.188    23.964     8.017
   162   8 O        0.856    -0.362    20.930     6.134
   163   6 C        3.854    -0.030    21.064     6.528
   164   6 C        3.817    -0.075    21.926     6.664
   165   6 C        3.773    -0.144    23.302     6.878
   166   6 C        3.767    -0.132    23.074     6.846
   167   1 H        0.859     0.172     1.259     1.758
   168   1 H        0.930     0.079     1.985     2.203
   169   1 H        0.930     0.064     2.153     2.294
   170   1 H        0.930     0.039     2.463     2.454
   171   1 H        0.930     0.046     2.365     2.405
   172   1 H        0.930     0.052     2.294     2.368
   173   1 H        0.930     0.076     2.025     2.225
   174   1 H        0.930     0.034     2.533     2.489
   175   1 H        0.930     0.038     2.473     2.459
   176   1 H        0.930     0.046     2.373     2.409
   177   1 H        0.930     0.055     2.263     2.352
   178   1 H        0.928     0.039     2.466     2.455
   179   1 H        0.862     0.151     1.394     1.850
   180   7 N        2.634    -0.340    28.742     7.962
   181   6 C        3.792     0.030    20.072     6.380
   182   6 C        2.768     0.189    23.946     8.014
   183   8 O        0.856    -0.337    20.455     6.064
   184   6 C        3.856    -0.075    21.884     6.653
   185   6 C        3.809    -0.015    20.845     6.499
   186  16 S        1.978    -0.204   149.743    20.596
   187   6 C        3.759    -0.076    21.993     6.686
   188   1 H        0.858     0.139     1.480     1.906
   189   1 H        0.930     0.065     2.137     2.286
   190   1 H        0.929     0.078     1.998     2.210
   191   1 H        0.929     0.049     2.329     2.387
   192   1 H        0.929     0.045     2.381     2.413
   193   1 H        0.929     0.059     2.207     2.323
   194   1 H        0.930     0.059     2.215     2.327
   195   1 H        0.930     0.058     2.223     2.332
   196   1 H        0.930     0.056     2.247     2.344
   197   1 H        0.928     0.059     2.210     2.325
   198   6 C        2.925    -0.030    28.759     8.795
   199   1 H        0.926     0.046     2.376     2.411
   200   6 C        2.989    -0.041    29.017     8.836
   201   1 H        0.926     0.064     2.147     2.291
   202   6 C        2.887     0.103    25.719     8.314
   203  17 Cl       0.991    -0.160   104.160    15.614
   204   6 C        2.925    -0.041    29.007     8.832
   205   1 H        0.926     0.063     2.161     2.299
   206   6 C        2.920    -0.026    28.663     8.779
   207   1 H        0.926     0.069     2.100     2.266
   208   6 C        2.978     0.007    27.849     8.656
   209   6 C        2.916     0.104    25.694     8.312
   210   7 N        1.869    -0.247    27.292     7.744
   211   6 C        2.969    -0.015    28.377     8.738
   212   6 C        2.917    -0.028    28.698     8.785
   213   1 H        0.926     0.041     2.441     2.443
   214   6 C        2.914    -0.033    28.823     8.804
   215   1 H        0.926     0.037     2.484     2.465
   216   6 C        2.908    -0.037    28.911     8.817
   217   1 H        0.926     0.056     2.248     2.345
   218   6 C        2.919    -0.042    29.056     8.839
   219   1 H        0.926     0.056     2.241     2.341
   220   6 C        2.966     0.007    27.865     8.659
   221   6 C        3.005    -0.050    29.235     8.869
   222   6 C        3.065     0.087    26.007     8.362
   223   6 C        3.758    -0.123    22.917     6.825
   224   1 H        0.925     0.075     2.029     2.227
   225   1 H        0.925     0.056     2.247     2.344
   226   1 H        0.925     0.081     1.964     2.192
   227   7 N        1.981    -0.174    25.543     7.495
   228   8 O        1.804    -0.148    16.524     5.489
   229   6 C        3.126     0.127    25.040     8.194
   230   6 C        3.824     0.068    19.422     6.271
   231   1 H        0.923     0.045     2.383     2.414
   232   6 C        3.813    -0.110    22.588     6.765
   233   1 H        0.925     0.080     1.979     2.200
   234   1 H        0.925     0.076     2.024     2.225
   235   6 C        2.744     0.291    22.073     7.693
   236   8 O        0.858    -0.431    22.302     6.332
   237   7 N        2.640    -0.289    27.455     7.782
   238   1 H        0.860     0.186     1.179     1.701
   239   1 H        0.860     0.213     1.040     1.598
   240   8 O        1.598    -0.563    24.324     6.656
   241   1 H        0.799     0.280     0.785     1.393
   242   1 H        0.799     0.283     0.775     1.384
   243   8 O        1.598    -0.619    25.664     6.837
   244   1 H        0.799     0.313     0.685     1.300
   245   1 H        0.799     0.278     0.794     1.400
   246   8 O        1.598    -0.581    24.744     6.713
   247   1 H        0.799     0.286     0.766     1.375
   248   1 H        0.799     0.292     0.746     1.357
   249   8 O        1.598    -0.604    25.290     6.787
   250   1 H        0.799     0.313     0.685     1.301
   251   1 H        0.799     0.268     0.827     1.429
   252   8 O        1.598    -0.577    24.650     6.701
   253   1 H        0.799     0.301     0.719     1.332
   254   1 H        0.799     0.271     0.816     1.419
   255   8 O        1.598    -0.591    24.983     6.746
   256   1 H        0.799     0.305     0.708     1.322
   257   1 H        0.799     0.278     0.794     1.400

 Mol. C6AA /au·bohr⁶  :     646203.728111
 Mol. C8AA /au·bohr⁸  :   14952096.664223
 Mol. α(0) /au        :       1228.704146


Wiberg/Mayer (AO) data.
largest (>0.10) Wiberg bond orders for each atom

 ---------------------------------------------------------------------------
     #   Z sym  total        # sym  WBO       # sym  WBO       # sym  WBO
 ---------------------------------------------------------------------------
     1   1 H    0.980 --     2 N    0.969
     2   7 N    3.012 --     3 C    1.009     1 H    0.969    16 H    0.960
     3   6 C    3.978 --     2 N    1.009    17 H    0.960     6 C    0.952
                             4 C    0.936
     4   6 C    3.948 --     5 O    1.668    26 N    1.247     3 C    0.936
     5   8 O    1.990 --     4 C    1.668    26 N    0.196
     6   6 C    3.992 --     7 C    1.029    19 H    0.969    18 H    0.966
                             3 C    0.952
     7   6 C    3.981 --     8 C    1.575     9 C    1.204     6 C    1.029
     8   6 C    3.951 --     7 C    1.575    10 N    1.185    20 H    0.974
     9   6 C    3.985 --    12 C    1.330    11 C    1.253     7 C    1.204
    10   7 N    3.528 --     8 C    1.185    11 C    1.169    21 H    0.948
    11   6 C    3.957 --    13 C    1.340     9 C    1.253    10 N    1.169
    12   6 C    3.995 --    14 C    1.499     9 C    1.330    22 H    0.974
                            13 C    0.115
    13   6 C    3.991 --    15 C    1.487    11 C    1.340    23 H    0.972
                            12 C    0.115
    14   6 C    3.993 --    12 C    1.499    15 C    1.377    24 H    0.969
    15   6 C    3.994 --    13 C    1.487    14 C    1.377    25 H    0.974
    16   1 H    0.982 --     2 N    0.960
    17   1 H    0.995 --     3 C    0.960
    18   1 H    0.995 --     6 C    0.966
    19   1 H    0.996 --     6 C    0.969
    20   1 H    0.998 --     8 C    0.974
    21   1 H    0.975 --    10 N    0.948
    22   1 H    0.998 --    12 C    0.974
    23   1 H    0.998 --    13 C    0.972
    24   1 H    0.998 --    14 C    0.969
    25   1 H    0.998 --    15 C    0.974
    26   7 N    3.470 --     4 C    1.247    27 C    0.969    32 C    0.963
                             5 O    0.196
    27   6 C    3.972 --    26 N    0.969    30 C    0.966    28 C    0.957
                            33 H    0.955
    28   6 C    3.952 --    29 O    1.590    40 N    1.320    27 C    0.957
    29   8 O    1.944 --    28 C    1.590    40 N    0.189
    30   6 C    3.992 --    31 C    1.001    34 H    0.977    35 H    0.975
                            27 C    0.966
    31   6 C    3.994 --    32 C    1.008    30 C    1.001    37 H    0.978
                            36 H    0.969
    32   6 C    3.971 --    31 C    1.008    38 H    0.970    39 H    0.967
                            26 N    0.963
    33   1 H    0.992 --    27 C    0.955
    34   1 H    0.997 --    30 C    0.977
    35   1 H    0.996 --    30 C    0.975
    36   1 H    0.995 --    31 C    0.969
    37   1 H    0.996 --    31 C    0.978
    38   1 H    0.997 --    32 C    0.970
    39   1 H    0.994 --    32 C    0.967
    40   7 N    3.482 --    28 C    1.320    41 C    0.969    51 H    0.924
                            29 O    0.189
    41   6 C    3.956 --    42 C    0.984    40 N    0.969    44 C    0.955
                            52 H    0.918
    42   6 C    3.917 --    43 O    1.927    41 C    0.984    60 H    0.943
    43   8 O    2.085 --    42 C    1.927
    44   6 C    3.985 --    45 C    0.995    53 H    0.977    54 H    0.966
                            41 C    0.955
    45   6 C    3.989 --    46 C    1.441    47 C    1.409    44 C    0.995
                            50 C    0.102
    46   6 C    3.993 --    45 C    1.441    48 C    1.420    55 H    0.971
                            49 C    0.114
    47   6 C    3.995 --    49 C    1.443    45 C    1.409    56 H    0.972
                            48 C    0.119
    48   6 C    3.993 --    50 C    1.451    46 C    1.420    57 H    0.975
                            47 C    0.119
    49   6 C    3.995 --    47 C    1.443    50 C    1.438    58 H    0.974
                            46 C    0.114
    50   6 C    3.993 --    48 C    1.451    49 C    1.438    59 H    0.973
                            45 C    0.102
    51   1 H    0.967 --    40 N    0.924
    52   1 H    0.980 --    41 C    0.918
    53   1 H    0.996 --    44 C    0.977
    54   1 H    0.991 --    44 C    0.966
    55   1 H    0.996 --    46 C    0.971
    56   1 H    0.999 --    47 C    0.972
    57   1 H    0.997 --    48 C    0.975
    58   1 H    0.999 --    49 C    0.974
    59   1 H    0.997 --    50 C    0.973
    60   1 H    0.996 --    42 C    0.943
    61   1 H    0.978 --    62 N    0.968
    62   7 N    3.059 --    63 C    1.008    61 H    0.968    69 H    0.960
    63   6 C    3.984 --    62 N    1.008    66 C    0.966    70 H    0.965
                            64 C    0.960
    64   6 C    3.910 --    65 O    1.906    63 C    0.960    78 H    0.950
    65   8 O    2.060 --    64 C    1.906
    66   6 C    3.992 --    68 C    1.006    67 C    1.002    71 H    0.974
                            63 C    0.966
    67   6 C    3.992 --    66 C    1.002    73 H    0.986    72 H    0.986
                            74 H    0.979
    68   6 C    3.990 --    66 C    1.006    77 H    0.986    76 H    0.985
                            75 H    0.978
    69   1 H    0.979 --    62 N    0.960
    70   1 H    0.997 --    63 C    0.965
    71   1 H    0.996 --    66 C    0.974
    72   1 H    0.998 --    67 C    0.986
    73   1 H    0.997 --    67 C    0.986
    74   1 H    0.998 --    67 C    0.979
    75   1 H    0.995 --    68 C    0.978
    76   1 H    0.997 --    68 C    0.985
    77   1 H    0.998 --    68 C    0.986
    78   1 H    0.999 --    64 C    0.950
    79   1 H    0.980 --    80 N    0.969
    80   7 N    3.025 --    81 C    1.023    79 H    0.969    88 H    0.965
    81   6 C    3.982 --    80 N    1.023    82 C    0.968    84 C    0.963
                            89 H    0.940
    82   6 C    3.905 --    83 O    1.915    81 C    0.968    99 H    0.944
    83   8 O    2.067 --    82 C    1.915
    84   6 C    3.987 --    85 C    0.991    90 H    0.976    91 H    0.973
                            81 C    0.963
    85   6 C    3.995 --    87 C    1.006    86 C    1.005    84 C    0.991
                            92 H    0.978
    86   6 C    3.991 --    85 C    1.005    93 H    0.987    95 H    0.985
                            94 H    0.984
    87   6 C    3.992 --    85 C    1.006    98 H    0.988    97 H    0.985
                            96 H    0.985
    88   1 H    0.982 --    80 N    0.965
    89   1 H    0.994 --    81 C    0.940
    90   1 H    0.997 --    84 C    0.976
    91   1 H    0.995 --    84 C    0.973
    92   1 H    0.998 --    85 C    0.978
    93   1 H    0.998 --    86 C    0.987
    94   1 H    0.998 --    86 C    0.984
    95   1 H    0.998 --    86 C    0.985
    96   1 H    0.998 --    87 C    0.985
    97   1 H    0.998 --    87 C    0.985
    98   1 H    0.997 --    87 C    0.988
    99   1 H    0.998 --    82 C    0.944
   100   1 H    0.977 --   101 N    0.966
   101   7 N    3.057 --   102 C    0.995   109 H    0.968   100 H    0.966
   102   6 C    3.978 --   101 N    0.995   105 C    0.983   103 C    0.970
                           110 H    0.951
   103   6 C    3.910 --   104 O    1.914   102 C    0.970   120 H    0.949
   104   8 O    2.062 --   103 C    1.914
   105   6 C    3.990 --   106 C    0.994   102 C    0.983   111 H    0.977
                           112 H    0.973
   106   6 C    3.995 --   108 C    1.006   107 C    1.004   105 C    0.994
                           113 H    0.973
   107   6 C    3.992 --   106 C    1.004   116 H    0.986   114 H    0.983
                           115 H    0.982
   108   6 C    3.991 --   106 C    1.006   118 H    0.985   117 H    0.983
                           119 H    0.967
   109   1 H    0.984 --   101 N    0.968
   110   1 H    0.995 --   102 C    0.951
   111   1 H    0.996 --   105 C    0.977
   112   1 H    0.995 --   105 C    0.973
   113   1 H    0.997 --   106 C    0.973
   114   1 H    0.998 --   107 C    0.983
   115   1 H    0.997 --   107 C    0.982
   116   1 H    0.998 --   107 C    0.986
   117   1 H    0.998 --   108 C    0.983
   118   1 H    0.997 --   108 C    0.985
   119   1 H    0.998 --   108 C    0.967
   120   1 H    0.998 --   103 C    0.949
   121   1 H    0.975 --   122 N    0.966
   122   7 N    3.030 --   123 C    1.013   134 H    0.967   121 H    0.966
   123   6 C    3.975 --   122 N    1.013   135 H    0.963   126 C    0.958
                           124 C    0.928
   124   6 C    3.943 --   125 O    1.696   143 N    1.247   123 C    0.928
   125   8 O    2.006 --   124 C    1.696   143 N    0.189
   126   6 C    3.993 --   127 C    1.001   137 H    0.979   136 H    0.974
                           123 C    0.958
   127   6 C    3.985 --   128 C    1.417   129 C    1.409   126 C    1.001
   128   6 C    3.994 --   130 C    1.449   127 C    1.417   138 H    0.974
                           131 C    0.105
   129   6 C    3.994 --   131 C    1.446   127 C    1.409   139 H    0.971
                           130 C    0.111
   130   6 C    3.990 --   128 C    1.449   132 C    1.375   140 H    0.972
                           129 C    0.111
   131   6 C    3.990 --   129 C    1.446   132 C    1.381   141 H    0.964
                           128 C    0.105
   132   6 C    3.939 --   131 C    1.381   130 C    1.375   133 O    1.056
   133   8 O    2.095 --   132 C    1.056   142 H    0.866
   134   1 H    0.984 --   122 N    0.967
   135   1 H    0.994 --   123 C    0.963
   136   1 H    0.995 --   126 C    0.974
   137   1 H    0.997 --   126 C    0.979
   138   1 H    0.998 --   128 C    0.974
   139   1 H    0.998 --   129 C    0.971
   140   1 H    0.996 --   130 C    0.972
   141   1 H    0.997 --   131 C    0.964
   142   1 H    0.913 --   133 O    0.866
   143   7 N    3.431 --   124 C    1.247   144 C    0.991   151 H    0.931
                           125 O    0.189
   144   6 C    3.973 --   143 N    0.991   145 C    0.978   147 C    0.962
                           152 H    0.912
   145   6 C    3.922 --   146 O    1.934   144 C    0.978   157 H    0.945
   146   8 O    2.087 --   145 C    1.934
   147   6 C    3.991 --   153 H    0.976   148 C    0.970   144 C    0.962
                           154 H    0.956
   148   6 C    3.944 --   149 O    1.589   150 N    1.332   147 C    0.970
   149   8 O    1.981 --   148 C    1.589   150 N    0.187
   150   7 N    3.427 --   148 C    1.332   155 H    0.941   156 H    0.908
                           149 O    0.187
   151   1 H    0.971 --   143 N    0.931
   152   1 H    0.982 --   144 C    0.912
   153   1 H    0.996 --   147 C    0.976
   154   1 H    0.990 --   147 C    0.956
   155   1 H    0.961 --   150 N    0.941
   156   1 H    0.943 --   150 N    0.908
   157   1 H    0.996 --   145 C    0.945
   158   1 H    0.980 --   159 N    0.969
   159   7 N    3.045 --   160 C    1.017   158 H    0.969   167 H    0.940
   160   6 C    3.981 --   159 N    1.017   161 C    0.976   163 C    0.947
                           168 H    0.945
   161   6 C    3.904 --   162 O    1.877   160 C    0.976   178 H    0.949
   162   8 O    2.048 --   161 C    1.877
   163   6 C    3.991 --   165 C    1.008   164 C    0.990   169 H    0.970
                           160 C    0.947
   164   6 C    3.996 --   166 C    1.017   163 C    0.990   171 H    0.981
                           170 H    0.979
   165   6 C    3.989 --   163 C    1.008   174 H    0.987   172 H    0.979
                           173 H    0.975
   166   6 C    3.991 --   164 C    1.017   175 H    0.986   177 H    0.984
                           176 H    0.981
   167   1 H    0.970 --   159 N    0.940
   168   1 H    0.994 --   160 C    0.945
   169   1 H    0.996 --   163 C    0.970
   170   1 H    0.998 --   164 C    0.979
   171   1 H    0.998 --   164 C    0.981
   172   1 H    0.997 --   165 C    0.979
   173   1 H    0.994 --   165 C    0.975
   174   1 H    0.999 --   165 C    0.987
   175   1 H    0.999 --   166 C    0.986
   176   1 H    0.998 --   166 C    0.981
   177   1 H    0.997 --   166 C    0.984
   178   1 H    0.998 --   161 C    0.949
   179   1 H    0.977 --   180 N    0.968
   180   7 N    3.045 --   181 C    1.004   179 H    0.968   188 H    0.961
   181   6 C    3.984 --   180 N    1.004   184 C    0.972   189 H    0.963
                           182 C    0.962
   182   6 C    3.907 --   183 O    1.912   181 C    0.962   197 H    0.948
   183   8 O    2.060 --   182 C    1.912
   184   6 C    3.991 --   185 C    1.004   191 H    0.977   181 C    0.972
                           190 H    0.970
   185   6 C    3.977 --   184 C    1.004   186 S    0.991   192 H    0.973
                           193 H    0.970
   186  16 S    2.073 --   187 C    1.003   185 C    0.991
   187   6 C    3.975 --   186 S    1.003   194 H    0.984   196 H    0.981
                           195 H    0.980
   188   1 H    0.981 --   180 N    0.961
   189   1 H    0.996 --   181 C    0.963
   190   1 H    0.994 --   184 C    0.970
   191   1 H    0.998 --   184 C    0.977
   192   1 H    0.998 --   185 C    0.973
   193   1 H    0.996 --   185 C    0.970
   194   1 H    0.996 --   187 C    0.984
   195   1 H    0.997 --   187 C    0.980
   196   1 H    0.997 --   187 C    0.981
   197   1 H    0.996 --   182 C    0.948
   198   6 C    3.989 --   200 C    1.455   208 C    1.379   199 H    0.959
                           204 C    0.100
   199   1 H    0.998 --   198 C    0.959
   200   6 C    3.986 --   198 C    1.455   202 C    1.394   201 H    0.962
                           206 C    0.104
   201   1 H    0.995 --   200 C    0.962
   202   6 C    3.916 --   200 C    1.394   204 C    1.387   203 Cl   0.990
   203  17 Cl   1.129 --   202 C    0.990
   204   6 C    3.986 --   206 C    1.456   202 C    1.387   205 H    0.962
                           198 C    0.100
   205   1 H    0.995 --   204 C    0.962
   206   6 C    3.985 --   204 C    1.456   208 C    1.373   207 H    0.964
                           200 C    0.104
   207   1 H    0.995 --   206 C    0.964
   208   6 C    3.988 --   198 C    1.379   206 C    1.373   209 C    1.040
   209   6 C    3.970 --   210 N    1.765   208 C    1.040   211 C    1.031
   210   7 N    3.067 --   209 C    1.765   230 C    0.993
   211   6 C    3.984 --   212 C    1.374   220 C    1.334   209 C    1.031
   212   6 C    3.989 --   214 C    1.467   211 C    1.374   213 H    0.967
                           218 C    0.105
   213   1 H    0.998 --   212 C    0.967
   214   6 C    3.982 --   212 C    1.467   216 C    1.396   215 H    0.965
   215   1 H    0.998 --   214 C    0.965
   216   6 C    3.988 --   218 C    1.472   214 C    1.396   217 H    0.963
   217   1 H    0.996 --   216 C    0.963
   218   6 C    3.989 --   216 C    1.472   220 C    1.366   219 H    0.959
                           212 C    0.105
   219   1 H    0.996 --   218 C    0.959
   220   6 C    3.986 --   218 C    1.366   211 C    1.334   221 C    1.079
   221   6 C    3.974 --   229 C    1.477   222 C    1.222   220 C    1.079
   222   6 C    3.969 --   227 N    1.580   221 C    1.222   223 C    1.031
   223   6 C    3.989 --   222 C    1.031   226 H    0.977   225 H    0.967
                           224 H    0.954
   224   1 H    0.994 --   223 C    0.954
   225   1 H    0.997 --   223 C    0.967
   226   1 H    0.993 --   223 C    0.977
   227   7 N    2.913 --   222 C    1.580   228 O    1.051   229 C    0.145
   228   8 O    2.429 --   229 C    1.153   227 N    1.051
   229   6 C    3.920 --   221 C    1.477   228 O    1.153   230 C    0.976
                           227 N    0.145
   230   6 C    3.985 --   232 C    0.994   210 N    0.993   229 C    0.976
                           231 H    0.932
   231   1 H    0.997 --   230 C    0.932
   232   6 C    3.991 --   230 C    0.994   234 H    0.957   235 C    0.955
                           233 H    0.943
   233   1 H    0.993 --   232 C    0.943
   234   1 H    0.994 --   232 C    0.957
   235   6 C    3.947 --   236 O    1.712   237 N    1.251   232 C    0.955
   236   8 O    2.015 --   235 C    1.712   237 N    0.193
   237   7 N    3.358 --   235 C    1.251   238 H    0.942   239 H    0.915
                           236 O    0.193
   238   1 H    0.965 --   237 N    0.942
   239   1 H    0.954 --   237 N    0.915
   240   8 O    1.841 --   241 H    0.921   242 H    0.919
   241   1 H    0.922 --   240 O    0.921
   242   1 H    0.920 --   240 O    0.919
   243   8 O    1.822 --   245 H    0.913   244 H    0.837
   244   1 H    0.902 --   243 O    0.837
   245   1 H    0.923 --   243 O    0.913
   246   8 O    1.835 --   247 H    0.917   248 H    0.900
   247   1 H    0.918 --   246 O    0.917
   248   1 H    0.915 --   246 O    0.900
   249   8 O    1.819 --   251 H    0.915   250 H    0.863
   250   1 H    0.902 --   249 O    0.863
   251   1 H    0.928 --   249 O    0.915
   252   8 O    1.839 --   254 H    0.924   253 H    0.883
   253   1 H    0.909 --   252 O    0.883
   254   1 H    0.926 --   252 O    0.924
   255   8 O    1.840 --   257 H    0.911   256 H    0.884
   256   1 H    0.907 --   255 O    0.884
   257   1 H    0.923 --   255 O    0.911
 ---------------------------------------------------------------------------

Topologies differ in total number of bonds
Writing topology from bond orders to xtbtopo.mol

molecular dipole:
                 x           y           z       tot (Debye)
 q only:       -2.788       2.754      -3.545
   full:       -4.358       3.007      -4.548      17.740
molecular quadrupole (traceless):
                xx          xy          yy          xz          yz          zz
 q only:      -81.091     174.039      14.823     -74.824      58.930      66.268
  q+dip:     -147.647     209.752      53.114     -94.551      52.737      94.533
   full:     -149.450     213.130      58.929     -96.098      51.620      90.521


           -------------------------------------------------
          | TOTAL ENERGY             -384.642928827910 Eh   |
          | GRADIENT NORM               0.900850185307 Eh/α |
          | HOMO-LUMO GAP               1.008798277127 eV   |
           -------------------------------------------------

------------------------------------------------------------------------
 * finished run on 2022/11/09 at 12:34:36.036     
------------------------------------------------------------------------
 total:
 * wall-time:     0 d,  0 h,  0 min, 18.666 sec
 *  cpu-time:     0 d,  0 h,  5 min, 59.231 sec
 * ratio c/w:    19.245 speedup
 SCF:
 * wall-time:     0 d,  0 h,  0 min, 18.492 sec
 *  cpu-time:     0 d,  0 h,  5 min, 56.542 sec
 * ratio c/w:    19.281 speedup

