      -----------------------------------------------------------      
     |                   =====================                   |     
     |                           x T B                           |     
     |                   =====================                   |     
     |                         S. Grimme                         |     
     |          Mulliken Center for Theoretical Chemistry        |     
     |                    University of Bonn                     |     
      -----------------------------------------------------------      

   * xtb version 6.6.0 (2ccbbd7) compiled by 'conda@6fe65c42fc39' on 2023-02-10

   xtb is free software: you can redistribute it and/or modify it under
   the terms of the GNU Lesser General Public License as published by
   the Free Software Foundation, either version 3 of the License, or
   (at your option) any later version.
   
   xtb is distributed in the hope that it will be useful,
   but WITHOUT ANY WARRANTY; without even the implied warranty of
   MERCHANTABILITY or FITNESS FOR A PARTICULAR PURPOSE.  See the
   GNU Lesser General Public License for more details.
   
   Cite this work as:
   * C. Bannwarth, E. Caldeweyher, S. Ehlert, A. Hansen, P. Pracht,
     J. Seibert, S. Spicher, S. Grimme, WIREs Comput. Mol. Sci., 2020, 11,
     e01493. DOI: 10.1002/wcms.1493
   
   for GFN2-xTB:
   * C. Bannwarth, S. Ehlert and S. Grimme., J. Chem. Theory Comput., 2019,
     15, 1652-1671. DOI: 10.1021/acs.jctc.8b01176
   for GFN1-xTB:
   * S. Grimme, C. Bannwarth, P. Shushkov, J. Chem. Theory Comput., 2017,
     13, 1989-2009. DOI: 10.1021/acs.jctc.7b00118
   for GFN0-xTB:
   * P. Pracht, E. Caldeweyher, S. Ehlert, S. Grimme, ChemRxiv, 2019, preprint.
     DOI: 10.26434/chemrxiv.8326202.v1
   for GFN-FF:
   * S. Spicher and S. Grimme, Angew. Chem. Int. Ed., 2020, 59, 15665-15673.
     DOI: 10.1002/anie.202004239
   
   for ALPB and GBSA implicit solvation:
   * S. Ehlert, M. Stahn, S. Spicher, S. Grimme, J. Chem. Theory Comput.,
     2021, 17, 4250-4261. DOI: 10.1021/acs.jctc.1c00471
   
   for DFT-D4:
   * E. Caldeweyher, C. Bannwarth and S. Grimme, J. Chem. Phys., 2017,
     147, 034112. DOI: 10.1063/1.4993215
   * E. Caldeweyher, S. Ehlert, A. Hansen, H. Neugebauer, S. Spicher,
     C. Bannwarth and S. Grimme, J. Chem. Phys., 2019, 150, 154122.
     DOI: 10.1063/1.5090222
   * E. Caldeweyher, J.-M. Mewes, S. Ehlert and S. Grimme, Phys. Chem. Chem. Phys.
     2020, 22, 8499-8512. DOI: 10.1039/D0CP00502A
   
   for sTDA-xTB:
   * S. Grimme and C. Bannwarth, J. Chem. Phys., 2016, 145, 054103.
     DOI: 10.1063/1.4959605
   
   in the mass-spec context:
   * V. Asgeirsson, C. Bauer and S. Grimme, Chem. Sci., 2017, 8, 4879.
     DOI: 10.1039/c7sc00601b
   * J. Koopman and S. Grimme, ACS Omega 2019, 4, 12, 15120-15133.
     DOI: 10.1021/acsomega.9b02011
   
   for metadynamics refer to:
   * S. Grimme, J. Chem. Theory Comput., 2019, 155, 2847-2862
     DOI: 10.1021/acs.jctc.9b00143
   
   for SPH calculations refer to:
   * S. Spicher and S. Grimme, J. Chem. Theory Comput., 2021, 17, 1701-1714
     DOI: 10.1021/acs.jctc.0c01306
   
   with help from (in alphabetical order)
   P. Atkinson, C. Bannwarth, F. Bohle, G. Brandenburg, E. Caldeweyher
   M. Checinski, S. Dohm, S. Ehlert, S. Ehrlich, I. Gerasimov, C. Hölzer
   A. Katbashev, J. Koopman, C. Lavigne, S. Lehtola, F. März, M. Müller,
   F. Musil, H. Neugebauer, J. Pisarek, C. Plett, P. Pracht, F. Pultar,
   J. Seibert, P. Shushkov, S. Spicher, M. Stahn, M. Steiner, T. Strunk,
   J. Stückrath, T. Rose, and J. Unsleber
   
 * started run on 2024/01/02 at 19:20:50.998     

           -------------------------------------------------
          |                Calculation Setup                |
           -------------------------------------------------

          program call               : xtb gau_xtb.xyz --chrg 0 --uhf 0 --grad
          hostname                   : node41
          coordinate file            : gau_xtb.xyz
          omp threads                :                    12

   ID    Z sym.   atoms
    1    6 C      1, 4, 7, 9, 11, 13-21
    2    7 N      2, 5, 8, 10, 12
    3    8 O      3, 6
    4    9 F      22
    5    1 H      23-36

           -------------------------------------------------
          |                 G F N 2 - x T B                 |
           -------------------------------------------------

        Reference                      10.1021/acs.jctc.8b01176
      * Hamiltonian:
        H0-scaling (s, p, d)           1.850000    2.230000    2.230000
        zeta-weighting                 0.500000
      * Dispersion:
        s8                             2.700000
        a1                             0.520000
        a2                             5.000000
        s9                             5.000000
      * Repulsion:
        kExp                           1.500000    1.000000
        rExp                           1.000000
      * Coulomb:
        alpha                          2.000000
        third order                    shell-resolved
        anisotropic                    true
        a3                             3.000000
        a5                             4.000000
        cn-shift                       1.200000
        cn-exp                         4.000000
        max-rad                        5.000000


          ...................................................
          :                      SETUP                      :
          :.................................................:
          :  # basis functions                 102          :
          :  # atomic orbitals                 102          :
          :  # shells                           58          :
          :  # electrons                       114          :
          :  max. iterations                   250          :
          :  Hamiltonian                  GFN2-xTB          :
          :  restarted?                      false          :
          :  GBSA solvation                  false          :
          :  PC potential                    false          :
          :  electronic temp.          300.0000000     K    :
          :  accuracy                    1.0000000          :
          :  -> integral cutoff          0.2500000E+02      :
          :  -> integral neglect         0.1000000E-07      :
          :  -> SCF convergence          0.1000000E-05 Eh   :
          :  -> wf. convergence          0.1000000E-03 e    :
          :  Broyden damping             0.4000000          :
          ...................................................

 iter      E             dE          RMSdq      gap      omega  full diag
   1    -65.2604029 -0.652604E+02  0.440E+00    2.98       0.0  T
   2    -65.4174653 -0.157062E+00  0.267E+00    3.04       1.0  T
   3    -65.4353706 -0.179053E-01  0.137E+00    3.17       1.0  T
   4    -65.4393814 -0.401081E-02  0.389E-01    2.84       1.0  T
   5    -65.4444098 -0.502840E-02  0.107E-01    2.88       1.0  T
   6    -65.4444708 -0.610584E-04  0.506E-02    2.90       1.0  T
   7    -65.4444885 -0.176543E-04  0.217E-02    2.92       1.0  T
   8    -65.4444920 -0.353162E-05  0.684E-03    2.93       2.4  T
   9    -65.4444927 -0.707052E-06  0.331E-03    2.93       5.0  T
  10    -65.4444928 -0.916042E-07  0.126E-03    2.93      13.2  T
  11    -65.4444928 -0.256279E-07  0.526E-04    2.93      31.7  T
  12    -65.4444928 -0.360188E-08  0.192E-04    2.93      86.9  T

   *** convergence criteria satisfied after 12 iterations ***

         #    Occupation            Energy/Eh            Energy/eV
      -------------------------------------------------------------
         1        2.0000           -0.8111569             -22.0727
       ...           ...                  ...                  ...
        51        2.0000           -0.4190170             -11.4020
        52        2.0000           -0.4137709             -11.2593
        53        2.0000           -0.4045763             -11.0091
        54        2.0000           -0.3935114             -10.7080
        55        2.0000           -0.3904570             -10.6249
        56        2.0000           -0.3683045             -10.0221
        57        2.0000           -0.3643939              -9.9157 (HOMO)
        58                         -0.2568949              -6.9905 (LUMO)
        59                         -0.2286721              -6.2225
        60                         -0.2266286              -6.1669
        61                         -0.2087273              -5.6798
        62                         -0.1950908              -5.3087
       ...                                ...                  ...
       102                          0.6706580              18.2495
      -------------------------------------------------------------
                  HL-Gap            0.1074990 Eh            2.9252 eV
             Fermi-level           -0.3106444 Eh           -8.4531 eV

 SCC (total)                   0 d,  0 h,  0 min,  0.061 sec
 SCC setup                      ...        0 min,  0.000 sec (  0.702%)
 Dispersion                     ...        0 min,  0.001 sec (  1.508%)
 classical contributions        ...        0 min,  0.002 sec (  3.635%)
 integral evaluation            ...        0 min,  0.003 sec (  5.140%)
 iterations                     ...        0 min,  0.050 sec ( 81.325%)
 molecular gradient             ...        0 min,  0.004 sec (  6.786%)
 printout                       ...        0 min,  0.000 sec (  0.479%)

         :::::::::::::::::::::::::::::::::::::::::::::::::::::
         ::                     SUMMARY                     ::
         :::::::::::::::::::::::::::::::::::::::::::::::::::::
         :: total energy             -64.633205435072 Eh    ::
         :: gradient norm              0.090514457282 Eh/a0 ::
         :: HOMO-LUMO gap              2.925195324159 eV    ::
         ::.................................................::
         :: SCC energy               -65.444492833885 Eh    ::
         :: -> isotropic ES            0.088129332632 Eh    ::
         :: -> anisotropic ES          0.009628269585 Eh    ::
         :: -> anisotropic XC          0.023292655150 Eh    ::
         :: -> dispersion             -0.037140356307 Eh    ::
         :: repulsion energy           0.811275512526 Eh    ::
         :: add. restraining           0.000000000000 Eh    ::
         :: total charge              -0.000000000000 e     ::
         :::::::::::::::::::::::::::::::::::::::::::::::::::::

           -------------------------------------------------
          |                Property Printout                |
           -------------------------------------------------

    * Orbital Energies and Occupations

         #    Occupation            Energy/Eh            Energy/eV
      -------------------------------------------------------------
         1        2.0000           -0.8111569             -22.0727
       ...           ...                  ...                  ...
        45        2.0000           -0.4677684             -12.7286
        46        2.0000           -0.4593321             -12.4991
        47        2.0000           -0.4512137             -12.2782
        48        2.0000           -0.4411531             -12.0044
        49        2.0000           -0.4260683             -11.5939
        50        2.0000           -0.4257601             -11.5855
        51        2.0000           -0.4190170             -11.4020
        52        2.0000           -0.4137709             -11.2593
        53        2.0000           -0.4045763             -11.0091
        54        2.0000           -0.3935114             -10.7080
        55        2.0000           -0.3904570             -10.6249
        56        2.0000           -0.3683045             -10.0221
        57        2.0000           -0.3643939              -9.9157 (HOMO)
        58                         -0.2568949              -6.9905 (LUMO)
        59                         -0.2286721              -6.2225
        60                         -0.2266286              -6.1669
        61                         -0.2087273              -5.6798
        62                         -0.1950908              -5.3087
        63                         -0.1017024              -2.7675
        64                         -0.0941167              -2.5610
        65                         -0.0316881              -0.8623
        66                         -0.0081940              -0.2230
        67                          0.0189347               0.5152
        68                          0.0273128               0.7432
       ...                                ...                  ...
       102                          0.6706580              18.2495
      -------------------------------------------------------------
                  HL-Gap            0.1074990 Eh            2.9252 eV
             Fermi-level           -0.3106444 Eh           -8.4531 eV

     #   Z          covCN         q      C6AA      α(0)
     1   6 C        2.872     0.129    25.174     8.225
     2   7 N        2.779    -0.131    23.828     7.250
     3   8 O        1.705    -0.274    18.550     5.815
     4   6 C        2.913    -0.071    29.778     8.948
     5   7 N        1.893    -0.277    28.049     7.852
     6   8 O        1.706    -0.266    18.416     5.794
     7   6 C        2.915    -0.070    29.752     8.944
     8   7 N        1.850    -0.308    28.845     7.960
     9   6 C        2.856     0.134    25.077     8.208
    10   7 N        1.836    -0.284    28.202     7.870
    11   6 C        2.920    -0.060    29.493     8.906
    12   7 N        2.646    -0.237    26.204     7.603
    13   6 C        2.963    -0.004    28.117     8.697
    14   6 C        3.635     0.039    20.299     6.483
    15   6 C        3.808    -0.070    21.833     6.651
    16   6 C        3.225     0.153    24.011     7.963
    17   6 C        3.107    -0.017    28.300     8.716
    18   6 C        3.271     0.164    23.296     7.781
    19   6 C        2.887     0.167    24.401     8.099
    20   6 C        2.805     0.332    21.361     7.572
    21   6 C        3.642     0.033    20.358     6.487
    22   9 F        0.793    -0.189    11.122     3.939
    23   1 H        0.860     0.164     1.309     1.793
    24   1 H        0.925     0.041     2.436     2.441
    25   1 H        0.925     0.039     2.469     2.457
    26   1 H        0.926     0.049     2.328     2.386
    27   1 H        0.859     0.200     1.105     1.646
    28   1 H        0.860     0.179     1.219     1.730
    29   1 H        0.923     0.037     2.488     2.467
    30   1 H        0.925     0.063     2.169     2.303
    31   1 H        0.924     0.041     2.429     2.437
    32   1 H        0.924     0.093     1.854     2.129
    33   1 H        0.924     0.051     2.309     2.377
    34   1 H        0.924     0.045     2.378     2.412
    35   1 H        0.924     0.064     2.157     2.297
    36   1 H        0.924     0.043     2.413     2.429

 Mol. C6AA /au·bohr⁶  :      16277.152379
 Mol. C8AA /au·bohr⁸  :     383057.352202
 Mol. α(0) /au        :        197.065162


Wiberg/Mayer (AO) data.
largest (>0.10) Wiberg bond orders for each atom

 ---------------------------------------------------------------------------
     #   Z sym  total        # sym  WBO       # sym  WBO       # sym  WBO
 ---------------------------------------------------------------------------
     1   6 C    3.936 --     4 C    1.408    13 C    1.283     6 O    1.069
     2   7 N    3.526 --    16 C    1.216    17 C    1.127    23 H    0.940
                             5 N    0.107
     3   8 O    2.214 --     9 C    1.053    14 C    0.985
     4   6 C    3.985 --     1 C    1.408     7 C    1.406    24 H    0.964
     5   7 N    3.019 --    16 C    1.545    18 C    1.219     2 N    0.107
     6   8 O    2.229 --     1 C    1.069    21 C    0.978
     7   6 C    3.986 --     4 C    1.406     9 C    1.398    25 H    0.967
                            13 C    0.104
     8   7 N    3.031 --    19 C    1.349    20 C    1.337
     9   6 C    3.936 --     7 C    1.398    11 C    1.327     3 O    1.053
    10   7 N    3.041 --    20 C    1.456    18 C    1.259
    11   6 C    3.987 --    13 C    1.482     9 C    1.327    26 H    0.965
    12   7 N    3.374 --    19 C    1.255    28 H    0.949    27 H    0.938
    13   6 C    3.979 --    11 C    1.482     1 C    1.283    15 C    0.986
                             7 C    0.104
    14   6 C    3.947 --     3 O    0.985    30 H    0.979    31 H    0.978
                            29 H    0.976
    15   6 C    3.991 --    16 C    1.018    13 C    0.986    33 H    0.955
                            32 H    0.951
    16   6 C    3.956 --     5 N    1.545     2 N    1.216    15 C    1.018
    17   6 C    3.941 --    18 C    1.310    19 C    1.216     2 N    1.127
    18   6 C    3.977 --    17 C    1.310    10 N    1.259     5 N    1.219
    19   6 C    3.971 --     8 N    1.349    12 N    1.255    17 C    1.216
    20   6 C    3.904 --    10 N    1.456     8 N    1.337    22 F    0.984
    21   6 C    3.944 --    35 H    0.980     6 O    0.978    34 H    0.977
                            36 H    0.977
    22   9 F    1.143 --    20 C    0.984
    23   1 H    0.973 --     2 N    0.940
    24   1 H    0.998 --     4 C    0.964
    25   1 H    0.998 --     7 C    0.967
    26   1 H    0.997 --    11 C    0.965
    27   1 H    0.959 --    12 N    0.938
    28   1 H    0.967 --    12 N    0.949
    29   1 H    0.998 --    14 C    0.976
    30   1 H    0.996 --    14 C    0.979
    31   1 H    0.998 --    14 C    0.978
    32   1 H    0.990 --    15 C    0.951
    33   1 H    0.997 --    15 C    0.955
    34   1 H    0.998 --    21 C    0.977
    35   1 H    0.995 --    21 C    0.980
    36   1 H    0.998 --    21 C    0.977
 ---------------------------------------------------------------------------

Topologies differ in total number of bonds
Writing topology from bond orders to xtbtopo.mol

molecular dipole:
                 x           y           z       tot (Debye)
 q only:        0.722       1.171      -2.721
   full:        0.690       1.572      -3.537       9.992
molecular quadrupole (traceless):
                xx          xy          yy          xz          yz          zz
 q only:      129.408      25.387     171.510      52.088       7.938    -300.918
  q+dip:      164.295      29.675     225.678      49.976      13.242    -389.972
   full:      162.321      30.138     226.946      50.202      13.893    -389.267


           -------------------------------------------------
          | TOTAL ENERGY              -64.633205435072 Eh   |
          | GRADIENT NORM               0.090514457282 Eh/α |
          | HOMO-LUMO GAP               2.925195324159 eV   |
           -------------------------------------------------

------------------------------------------------------------------------
 * finished run on 2024/01/02 at 19:20:51.122     
------------------------------------------------------------------------
 total:
 * wall-time:     0 d,  0 h,  0 min,  0.123 sec
 *  cpu-time:     0 d,  0 h,  0 min,  2.221 sec
 * ratio c/w:    18.006 speedup
 SCF:
 * wall-time:     0 d,  0 h,  0 min,  0.062 sec
 *  cpu-time:     0 d,  0 h,  0 min,  1.351 sec
 * ratio c/w:    21.917 speedup

