 Entering Gaussian System, Link 0=g16
 AtFile(1): /home/chem-zhonglh/yanzy/env/amber14_mod.prm
            !
            ! Non-bonded interaction
            !
            NonBon 3 1 0 0 0.000 0.000 0.500 0.000 0.000 -1.000
            !
            ! Stretches
            !
            HrmStr1 OW HW  553.0  0.9572
            HrmStr1 HW HW  553.0  1.5136
            HrmStr1 C  C   310.0  1.525
            HrmStr1 C  CA  469.0  1.409
            HrmStr1 C  CB  447.0  1.419
            HrmStr1 C  CM  410.0  1.444
            HrmStr1 C  CS  410.0  1.444
            HrmStr1 C  CT  317.0  1.522
            HrmStr1 C  CX  317.0  1.522
            HrmStr1 C  N   490.0  1.335
            HrmStr1 C  N*  424.0  1.383
            HrmStr1 C  NA  418.0  1.388
            HrmStr1 C  NC  457.0  1.358
            HrmStr1 C  O   570.0  1.229
            HrmStr1 C  O2  656.0  1.250
            HrmStr1 C  OH  450.0  1.364
            HrmStr1 C  OS  450.0  1.323
            HrmStr1 C  H4  367.0  1.080
            HrmStr1 C  H5  367.0  1.080
            HrmStr1 CA CA  469.0  1.400
            HrmStr1 CA CB  469.0  1.404
            HrmStr1 CA CM  427.0  1.433
            HrmStr1 CA CS  427.0  1.433
            HrmStr1 CA CN  469.0  1.400
            HrmStr1 CA CT  317.0  1.510
            HrmStr1 CA HA  367.0  1.080
            HrmStr1 CA H4  367.0  1.080
            HrmStr1 CA N2  481.0  1.340
            HrmStr1 CA NA  427.0  1.381
            HrmStr1 CA NC  483.0  1.339
            HrmStr1 CA OH  450.0  1.364
            HrmStr1 CB CB  520.0  1.370
            HrmStr1 CB N*  436.0  1.374
            HrmStr1 CB NB  414.0  1.391
            HrmStr1 CB NC  461.0  1.354
            HrmStr1 CD HA  367.0  1.080
            HrmStr1 CD CD  469.0  1.400
            HrmStr1 CD CM  549.0  1.350
            HrmStr1 CD CS  549.0  1.350
            HrmStr1 CD CT  317.0  1.510
            HrmStr1 CK H5  367.0  1.080
            HrmStr1 CK N*  440.0  1.371
            HrmStr1 CK NB  529.0  1.304
            HrmStr1 CP H5  367.0  1.080
            HrmStr1 CP N*  440.0  1.371
            HrmStr1 CP NB  529.0  1.304
            HrmStr1 CM CM  549.0  1.350
            HrmStr1 CM CT  317.0  1.510
            HrmStr1 CM HA  367.0  1.080
            HrmStr1 CM H4  367.0  1.080
            HrmStr1 CM H5  367.0  1.080
            HrmStr1 CM N*  448.0  1.365
            HrmStr1 CM OS  480.0  1.240
            HrmStr1 CS CS  549.0  1.350
            HrmStr1 CS CT  317.0  1.510
            HrmStr1 CS HA  367.0  1.080
            HrmStr1 CS H4  367.0  1.080
            HrmStr1 CS H5  367.0  1.080
            HrmStr1 CS N*  448.0  1.365
            HrmStr1 CS OS  480.0  1.240
            HrmStr1 CQ H5  367.0  1.080
            HrmStr1 CQ NC  502.0  1.324
            HrmStr1 CT CT  310.0  1.526
            HrmStr1 CX CT  310.0  1.526
            HrmStr1 CT HC  340.0  1.090
            HrmStr1 CT H1  340.0  1.090
            HrmStr1 CX H1  340.0  1.090
            HrmStr1 CT H2  340.0  1.090
            HrmStr1 CT H3  340.0  1.090
            HrmStr1 CT HP  340.0  1.090
            HrmStr1 CX HP  340.0  1.090
            HrmStr1 CT N*  337.0  1.475
            HrmStr1 CT N2  337.0  1.463
            HrmStr1 CT OH  320.0  1.410
            HrmStr1 CT OS  320.0  1.410
            HrmStr1 C* HC  367.0  1.080
            HrmStr1 C* CB  388.0  1.459
            HrmStr1 C* CT  317.0  1.495
            HrmStr1 C* CW  546.0  1.352
            HrmStr1 CB CN  447.0  1.419
            HrmStr1 CC CT  317.0  1.504
            HrmStr1 CC CV  512.0  1.375
            HrmStr1 CC CW  518.0  1.371
            HrmStr1 CC NA  422.0  1.385
            HrmStr1 CC NB  410.0  1.394
            HrmStr1 CN NA  428.0  1.380
            HrmStr1 CR H5  367.0  1.080
            HrmStr1 CR NA  477.0  1.343
            HrmStr1 CR NB  488.0  1.335
            HrmStr1 CT N   337.0  1.449
            HrmStr1 CX N   337.0  1.449
            HrmStr1 CT N3  367.0  1.471
            HrmStr1 CX N3  367.0  1.471
            HrmStr1 CT NT  367.0  1.471
            HrmStr1 CT S   227.0  1.810
            HrmStr1 CT SH  237.0  1.810
            HrmStr1 CT CY  400.0  1.458
            HrmStr1 CT CZ  400.0  1.459
            HrmStr1 CV H4  367.0  1.080
            HrmStr1 CV NB  410.0  1.394
            HrmStr1 CW H4  367.0  1.080
            HrmStr1 CW NA  427.0  1.381
            HrmStr1 CY NY  600.0  1.150
            HrmStr1 CZ CZ  600.0  1.206
            HrmStr1 CZ HZ  400.0  1.056
            HrmStr1 OP P   525.0  1.480
            HrmStr1 O2 P   525.0  1.480
            HrmStr1 OH P   230.0  1.610
            HrmStr1 OS P   230.0  1.610
            HrmStr1 NA P   250.0  1.840
            HrmStr1 H  N2  434.0  1.010
            HrmStr1 H  N*  434.0  1.010
            HrmStr1 H  NA  434.0  1.010
            HrmStr1 H  N   434.0  1.010
            HrmStr1 H  N3  434.0  1.010
            HrmStr1 H  NT  434.0  1.010
            HrmStr1 HO OH  553.0  0.960
            HrmStr1 HO OS  553.0  0.960
            HrmStr1 HS SH  274.0  1.336
            HrmStr1 S  S   166.0  2.038
            HrmStr1 F  CT  367.0  1.380
            HrmStr1 Cl CT  232.0  1.766
            HrmStr1 Br CT  159.0  1.944
            HrmStr1 I  CT  148.0  2.166
            HrmStr1 F  CA  386.0  1.359
            HrmStr1 Cl CA  193.0  1.727
            HrmStr1 I  CA  171.0  2.075
            HrmStr1 Br CA  172.0  1.890
            HrmStr1 EP O   600.0  0.200
            HrmStr1 EP OH  600.0  0.200
            HrmStr1 EP OS  600.0  0.200
            HrmStr1 EP N3  600.0  0.200
            HrmStr1 EP NT  600.0  0.200
            HrmStr1 EP NB  600.0  0.200
            HrmStr1 EP NC  600.0  0.200
            HrmStr1 EP S   600.0  0.700
            HrmStr1 EP SH  600.0  0.700
            HrmStr1 CI H1  340.0  1.090
            HrmStr1 CI CT  310.0  1.526
            HrmStr1 OS CI  320.0  1.410
            HrmStr1 OH CI  320.0  1.410
            HrmStr1 C5 H5  367.0  1.080
            HrmStr1 C5 N*  440.0  1.371
            HrmStr1 C5 NB  529.0  1.304
            HrmStr1 C  C4  410.0  1.444
            HrmStr1 CA C4  427.0  1.433
            HrmStr1 C4 C4  549.0  1.350
            HrmStr1 C4 CT  317.0  1.510
            HrmStr1 C4 HA  367.0  1.080
            HrmStr1 C4 H4  367.0  1.080
            HrmStr1 C4 N*  448.0  1.365
            HrmStr1 C8 C8  310.0  1.5260
            HrmStr1 C8 CX  310.0  1.5260
            HrmStr1 C8 H1  340.0  1.0900
            HrmStr1 C8 HC  340.0  1.0900
            HrmStr1 C8 HP  340.0  1.0900
            HrmStr1 C8 N2  337.0  1.4630
            HrmStr1 C8 N3  367.0  1.4710
            HrmStr1 CO O2  656.0  1.2500
            !
            ! Angles
            !
            HrmBnd1 HW OW HW    100.   104.52
            HrmBnd1 HW HW OW      0.   127.74
            HrmBnd1 C  C  O     80.0   120.00
            HrmBnd1 C  C  OH    80.0   120.00
            HrmBnd1 CA C  CA    63.0   120.00
            HrmBnd1 CA C  OH    70.0   120.00
            HrmBnd1 CA C  OS    70.0   120.00
            HrmBnd1 CC NA P     76.7   125.10
            HrmBnd1 CR NA P     76.7   125.10
            HrmBnd1 NA P  OP    42.9   102.38
            HrmBnd1 CB C  NA    70.0   111.30
            HrmBnd1 CB C  O     80.0   128.80
            HrmBnd1 CM C  NA    70.0   114.10
            HrmBnd1 CM C  O     80.0   125.30
            HrmBnd1 CS C  NA    70.0   114.10
            HrmBnd1 CS C  O     80.0   125.30
            HrmBnd1 CT C  O     80.0   120.40
            HrmBnd1 CX C  O     80.0   120.40
            HrmBnd1 CT C  O2    70.0   117.00
            HrmBnd1 CX C  O2    70.0   117.00
            HrmBnd1 CT C  N     70.0   116.60
            HrmBnd1 CX C  N     70.0   116.60
            HrmBnd1 CT C  CT    63.0   117.00
            HrmBnd1 CT C  OS    80.0   115.00
            HrmBnd1 CT C  OH    80.0   110.00
            HrmBnd1 CX C  OH    80.0   110.00
            HrmBnd1 N* C  NA    70.0   115.40
            HrmBnd1 N* C  NC    70.0   118.60
            HrmBnd1 N* C  O     80.0   120.90
            HrmBnd1 NA C  O     80.0   120.60
            HrmBnd1 NC C  O     80.0   122.50
            HrmBnd1 N  C  O     80.0   122.90
            HrmBnd1 O  C  O     80.0   126.00
            HrmBnd1 O  C  OH    80.0   120.00
            HrmBnd1 O  C  OS    80.0   125.00
            HrmBnd1 O2 C  O2    80.0   126.00
            HrmBnd1 H4 C  C     50.0   120.00
            HrmBnd1 H4 C  CM    50.0   115.00
            HrmBnd1 H4 C  CS    50.0   115.00
            HrmBnd1 H4 C  CT    50.0   115.00
            HrmBnd1 H4 C  O     50.0   120.00
            HrmBnd1 H4 C  OH    50.0   120.00
            HrmBnd1 H5 C  N     50.0   120.00
            HrmBnd1 H5 C  O     50.0   119.00
            HrmBnd1 H5 C  OH    50.0   107.00
            HrmBnd1 H5 C  OS    50.0   107.00
            HrmBnd1 C  CA CA    63.0   120.00
            HrmBnd1 C  CA HA    50.0   120.00
            HrmBnd1 CA CA CA    63.0   120.00
            HrmBnd1 CA CA CB    63.0   120.00
            HrmBnd1 CA CA CT    70.0   120.00
            HrmBnd1 CA CA HA    50.0   120.00
            HrmBnd1 CA CA H4    50.0   120.00
            HrmBnd1 CA CA OH    70.0   120.00
            HrmBnd1 CA CA CN    63.0   120.00
            HrmBnd1 CB CA HA    50.0   120.00
            HrmBnd1 CB CA H4    50.0   120.00
            HrmBnd1 CB CA N2    70.0   123.50
            HrmBnd1 CB CA NC    70.0   117.30
            HrmBnd1 CM CA N2    70.0   120.10
            HrmBnd1 CM CA NC    70.0   121.50
            HrmBnd1 CS CA N2    70.0   120.10
            HrmBnd1 CS CA NC    70.0   121.50
            HrmBnd1 CN CA HA    50.0   120.00
            HrmBnd1 NA CA NC    70.0   123.30
            HrmBnd1 N2 CA NA    70.0   116.00
            HrmBnd1 N2 CA NC    70.0   119.30
            HrmBnd1 N2 CA N2    70.0   120.00
            HrmBnd1 F  CA CA    70.0   121.00
            HrmBnd1 Cl CA CA    70.0   118.80
            HrmBnd1 Br CA CA    70.0   118.80
            HrmBnd1 I  CA CA    70.0   118.80
            HrmBnd1 C  CB CB    63.0   119.20
            HrmBnd1 C  CB NB    70.0   130.00
            HrmBnd1 CA CB CB    63.0   117.30
            HrmBnd1 CA CB NB    70.0   132.40
            HrmBnd1 CB CB N*    70.0   106.20
            HrmBnd1 CB CB NB    70.0   110.40
            HrmBnd1 CB CB NC    70.0   127.70
            HrmBnd1 C* CB CA    63.0   134.90
            HrmBnd1 C* CB CN    63.0   108.80
            HrmBnd1 CA CB CN    63.0   116.20
            HrmBnd1 N* CB NC    70.0   126.20
            HrmBnd1 CD CD CM    63.0   120.00
            HrmBnd1 CD CD CS    63.0   120.00
            HrmBnd1 CD CD CT    70.0   120.00
            HrmBnd1 CM CD CT    70.0   120.00
            HrmBnd1 CS CD CT    70.0   120.00
            HrmBnd1 HA CD HA    35.0   119.00
            HrmBnd1 HA CD CD    50.0   120.00
            HrmBnd1 HA CD CM    50.0   120.00
            HrmBnd1 HA CD CS    50.0   120.00
            HrmBnd1 H5 CK N*    50.0   123.05
            HrmBnd1 H5 CK NB    50.0   123.05
            HrmBnd1 N* CK NB    70.0   113.90
            HrmBnd1 H5 CP N*    50.0   123.05
            HrmBnd1 H5 CP NB    50.0   123.05
            HrmBnd1 N* CP NB    70.0   113.90
            HrmBnd1 C  CM CM    63.0   120.70
            HrmBnd1 C  CM CT    70.0   119.70
            HrmBnd1 C  CM HA    50.0   119.70
            HrmBnd1 C  CM H4    50.0   119.70
            HrmBnd1 CA CM CM    63.0   117.00
            HrmBnd1 CA CM HA    50.0   123.30
            HrmBnd1 CA CM H4    50.0   123.30
            HrmBnd1 CM CM CT    70.0   119.70
            HrmBnd1 CM CM HA    50.0   119.70
            HrmBnd1 CM CM H4    50.0   119.70
            HrmBnd1 CM CM N*    70.0   121.20
            HrmBnd1 CM CM OS    80.0   125.00
            HrmBnd1 H4 CM N*    50.0   119.10
            HrmBnd1 H4 CM OS    50.0   113.00
            HrmBnd1 HA CM HA    35.0   120.00
            HrmBnd1 HA CM CD    50.0   120.00
            HrmBnd1 HA CM CT    50.0   120.00
            HrmBnd1 C  CS CS    63.0   120.70
            HrmBnd1 C  CS CT    70.0   119.70
            HrmBnd1 C  CS HA    50.0   119.70
            HrmBnd1 C  CS H4    50.0   119.70
            HrmBnd1 CA CS CS    63.0   117.00
            HrmBnd1 CA CS HA    50.0   123.30
            HrmBnd1 CA CS H4    50.0   123.30
            HrmBnd1 CM CS CT    70.0   119.70
            HrmBnd1 CS CS HA    50.0   119.70
            HrmBnd1 CS CS H4    50.0   119.70
            HrmBnd1 CS CS N*    70.0   121.20
            HrmBnd1 CS CS OS    80.0   125.00
            HrmBnd1 H4 CS N*    50.0   119.10
            HrmBnd1 H4 CS OS    50.0   113.00
            HrmBnd1 HA CS HA    35.0   120.00
            HrmBnd1 HA CS CD    50.0   120.00
            HrmBnd1 HA CS CT    50.0   120.00
            HrmBnd1 NC CQ NC    70.0   129.10
            HrmBnd1 H5 CQ NC    50.0   115.45
            HrmBnd1 H1 CT H1    35.0   109.50
            HrmBnd1 H1 CX H1    35.0   109.50
            HrmBnd1 H1 CT N*    50.0   109.50
            HrmBnd1 H1 CT OH    50.0   109.50
            HrmBnd1 H1 CT OS    50.0   109.50
            HrmBnd1 H1 CT CM    50.0   109.50
            HrmBnd1 H1 CT CS    50.0   109.50
            HrmBnd1 H1 CT CY    50.0   110.00
            HrmBnd1 H1 CT CZ    50.0   110.00
            HrmBnd1 H1 CT N     50.0   109.50
            HrmBnd1 H1 CX N     50.0   109.50
            HrmBnd1 H1 CT S     50.0   109.50
            HrmBnd1 H1 CT SH    50.0   109.50
            HrmBnd1 H1 CT N2    50.0   109.50
            HrmBnd1 H1 CT NT    50.0   109.50
            HrmBnd1 H2 CT H2    35.0   109.50
            HrmBnd1 H2 CT N*    50.0   109.50
            HrmBnd1 H2 CT OS    50.0   109.50
            HrmBnd1 HP CT HP    35.0   109.50
            HrmBnd1 HP CX HP    35.0   109.50
            HrmBnd1 HP CT N3    50.0   109.50
            HrmBnd1 HP CX N3    50.0   109.50
            HrmBnd1 HC CT HC    35.0   109.50
            HrmBnd1 HC CT CM    50.0   109.50
            HrmBnd1 HC CT CS    50.0   109.50
            HrmBnd1 HC CT CD    50.0   109.50
            HrmBnd1 HC CT CZ    50.0   110.00
            HrmBnd1 C  CT H1    50.0   109.50
            HrmBnd1 C  CX H1    50.0   109.50
            HrmBnd1 C  CT HP    50.0   109.50
            HrmBnd1 C  CX HP    50.0   109.50
            HrmBnd1 C  CT HC    50.0   109.50
            HrmBnd1 C  CT N     63.0   110.10
            HrmBnd1 C  CX N     63.0   110.10
            HrmBnd1 C  CT N3    80.0   111.20
            HrmBnd1 C  CX N3    80.0   111.20
            HrmBnd1 C  CT CT    63.0   111.10
            HrmBnd1 C  CT CX    63.0   111.10
            HrmBnd1 C  CX CT    63.0   111.10
            HrmBnd1 C  CT OS    60.0   109.50
            HrmBnd1 CA CT HC    50.0   109.50
            HrmBnd1 CC CT CT    63.0   113.10
            HrmBnd1 CC CT CX    63.0   113.10
            HrmBnd1 CC CT HC    50.0   109.50
            HrmBnd1 CM CT CT    63.0   111.00
            HrmBnd1 CM CT OS    50.0   109.50
            HrmBnd1 CS CT CT    63.0   111.00
            HrmBnd1 CS CT OS    50.0   109.50
            HrmBnd1 CT CT CT    40.0   109.50
            HrmBnd1 CT CT CX    40.0   109.50
            HrmBnd1 CT CT HC    50.0   109.50
            HrmBnd1 CX CT HC    50.0   109.50
            HrmBnd1 CT CT H1    50.0   109.50
            HrmBnd1 CT CX H1    50.0   109.50
            HrmBnd1 CX CT H1    50.0   109.50
            HrmBnd1 CT CT H2    50.0   109.50
            HrmBnd1 CT CT HP    50.0   109.50
            HrmBnd1 CT CX HP    50.0   109.50
            HrmBnd1 CT CT N*    50.0   109.50
            HrmBnd1 CT CT OH    50.0   109.50
            HrmBnd1 CX CT OH    50.0   109.50
            HrmBnd1 CT CT OS    50.0   109.50
            HrmBnd1 CT CT S     50.0   114.70
            HrmBnd1 CX CT S     50.0   114.70
            HrmBnd1 CT CT SH    50.0   108.60
            HrmBnd1 CX CT SH    50.0   108.60
            HrmBnd1 CT CT CA    63.0   114.00
            HrmBnd1 CX CT CA    63.0   114.00
            HrmBnd1 CT CT N2    80.0   111.20
            HrmBnd1 CT CT N     80.0   109.70
            HrmBnd1 CT CX N     80.0   109.70
            HrmBnd1 CT CT N3    80.0   111.20
            HrmBnd1 CT CX N3    80.0   111.20
            HrmBnd1 CT CT NT    80.0   111.20
            HrmBnd1 CT CT CY    63.0   110.00
            HrmBnd1 CT CT CZ    63.0   110.00
            HrmBnd1 C* CT CT    63.0   115.60
            HrmBnd1 C* CT CX    63.0   115.60
            HrmBnd1 C* CT HC    50.0   109.50
            HrmBnd1 OS CT OS   160.0   101.00
            HrmBnd1 OS CT CY    50.0   110.00
            HrmBnd1 OS CT CZ    50.0   110.00
            HrmBnd1 OS CT N*    50.0   109.50
            HrmBnd1 F  CT F     77.0   109.10
            HrmBnd1 F  CT H1    50.0   109.50
            HrmBnd1 F  CT CT    50.0   109.00
            HrmBnd1 F  CT H2    50.0   109.50
            HrmBnd1 Cl CT CT    50.0   108.50
            HrmBnd1 Cl CT H1    50.0   108.50
            HrmBnd1 Br CT CT    50.0   108.00
            HrmBnd1 Br CT H1    50.0   106.50
            HrmBnd1 I  CT CT    50.0   106.00
            HrmBnd1 CT CC NA    70.0   120.00
            HrmBnd1 CT CC CV    70.0   120.00
            HrmBnd1 CT CC NB    70.0   120.00
            HrmBnd1 CV CC NA    70.0   120.00
            HrmBnd1 CW CC NA    70.0   120.00
            HrmBnd1 CW CC NB    70.0   120.00
            HrmBnd1 CT CC CW    70.0   120.00
            HrmBnd1 H5 CR NA    50.0   120.00
            HrmBnd1 H5 CR NB    50.0   120.00
            HrmBnd1 NA CR NA    70.0   120.00
            HrmBnd1 NA CR NB    70.0   120.00
            HrmBnd1 CC CV H4    50.0   120.00
            HrmBnd1 CC CV NB    70.0   120.00
            HrmBnd1 H4 CV NB    50.0   120.00
            HrmBnd1 CC CW H4    50.0   120.00
            HrmBnd1 CC CW NA    70.0   120.00
            HrmBnd1 C* CW H4    50.0   120.00
            HrmBnd1 C* CW NA    70.0   108.70
            HrmBnd1 H4 CW NA    50.0   120.00
            HrmBnd1 CB C* CT    70.0   128.60
            HrmBnd1 CB C* CW    63.0   106.40
            HrmBnd1 CT C* CW    70.0   125.00
            HrmBnd1 CA CN CB    63.0   122.70
            HrmBnd1 CA CN NA    70.0   132.80
            HrmBnd1 CB CN NA    70.0   104.40
            HrmBnd1 CT CY NY    80.0   180.00
            HrmBnd1 CT CZ CZ    80.0   180.00
            HrmBnd1 CZ CZ HZ    50.0   180.00
            HrmBnd1 C  N  CT    50.0   121.90
            HrmBnd1 C  N  CX    50.0   121.90
            HrmBnd1 C  N  H     50.0   120.00
            HrmBnd1 CT N  H     50.0   118.04
            HrmBnd1 CX N  H     50.0   118.04
            HrmBnd1 CT N  CT    50.0   118.00
            HrmBnd1 CT N  CX    50.0   118.00
            HrmBnd1 H  N  H     35.0   120.00
            HrmBnd1 C  N* CM    70.0   121.60
            HrmBnd1 C  N* CS    70.0   121.60
            HrmBnd1 C  N* CT    70.0   117.60
            HrmBnd1 C  N* H     50.0   119.20
            HrmBnd1 CB N* CK    70.0   105.40
            HrmBnd1 CB N* CP    70.0   105.40
            HrmBnd1 CB N* CT    70.0   125.80
            HrmBnd1 CB N* H     50.0   125.80
            HrmBnd1 CK N* CT    70.0   128.80
            HrmBnd1 CK N* H     50.0   128.80
            HrmBnd1 CP N* CT    70.0   128.80
            HrmBnd1 CP N* H     50.0   128.80
            HrmBnd1 CM N* CT    70.0   121.20
            HrmBnd1 CM N* H     50.0   121.20
            HrmBnd1 CS N* CT    70.0   121.20
            HrmBnd1 CS N* H     50.0   121.20
            HrmBnd1 CA N2 H     50.0   120.00
            HrmBnd1 CA N2 CT    50.0   123.20
            HrmBnd1 CT N2 H     50.0   118.40
            HrmBnd1 H  N2 H     35.0   120.00
            HrmBnd1 CT N3 H     50.0   109.50
            HrmBnd1 CX N3 H     50.0   109.50
            HrmBnd1 CT N3 CT    50.0   109.50
            HrmBnd1 CT N3 CX    50.0   109.50
            HrmBnd1 H  N3 H     35.0   109.50
            HrmBnd1 CT NT H     50.0   109.50
            HrmBnd1 CT NT CT    50.0   109.50
            HrmBnd1 H  NT H     35.0   109.50
            HrmBnd1 C  NA C     70.0   126.40
            HrmBnd1 C  NA CA    70.0   125.20
            HrmBnd1 C  NA H     50.0   116.80
            HrmBnd1 CA NA H     50.0   118.00
            HrmBnd1 CC NA CR    70.0   120.00
            HrmBnd1 CC NA H     50.0   120.00
            HrmBnd1 CR NA CW    70.0   120.00
            HrmBnd1 CR NA H     50.0   120.00
            HrmBnd1 CW NA H     50.0   120.00
            HrmBnd1 CN NA CW    70.0   111.60
            HrmBnd1 CN NA H     50.0   123.10
            HrmBnd1 CB NB CK    70.0   103.80
            HrmBnd1 CB NB CP    70.0   103.80
            HrmBnd1 CC NB CR    70.0   117.00
            HrmBnd1 CR NB CV    70.0   117.00
            HrmBnd1 C  NC CA    70.0   120.50
            HrmBnd1 CA NC CB    70.0   112.20
            HrmBnd1 CA NC CQ    70.0   118.60
            HrmBnd1 CB NC CQ    70.0   111.00
            HrmBnd1 C  OH HO    50.0   113.00
            HrmBnd1 CA OH HO    50.0   113.00
            HrmBnd1 CT OH HO    55.0   108.50
            HrmBnd1 HO OH P     45.0   108.50
            HrmBnd1 C  OS CT    60.0   117.00
            HrmBnd1 CM OS CT    60.0   117.00
            HrmBnd1 CS OS CT    60.0   117.00
            HrmBnd1 CT OS CT    60.0   109.50
            HrmBnd1 CT OS P    100.0   120.50
            HrmBnd1 C  OS P    100.0   120.50
            HrmBnd1 P  OS P    100.0   120.50
            HrmBnd1 O2 P  OH    45.0   108.23
            HrmBnd1 O2 P  O2   140.0   119.90
            HrmBnd1 OP P  OP   140.0   119.90
            HrmBnd1 OP P  OS   100.0   108.23
            HrmBnd1 O2 P  OS   100.0   108.23
            HrmBnd1 OH P  OS    45.0   102.60
            HrmBnd1 OS P  OS    45.0   102.60
            HrmBnd1 CT S  CT    62.0    98.90
            HrmBnd1 CT S  S     68.0   103.70
            HrmBnd1 CT SH HS    43.0    96.00
            HrmBnd1 HS SH HS    35.0    92.07
            HrmBnd1 CB NB EP   150.0   126.00
            HrmBnd1 CC NB EP   150.0   126.00
            HrmBnd1 CK NB EP   150.0   126.00
            HrmBnd1 CP NB EP   150.0   126.00
            HrmBnd1 CR NB EP   150.0   126.00
            HrmBnd1 CV NB EP   150.0   126.00
            HrmBnd1 C  NC EP   150.0   120.00
            HrmBnd1 CA NC EP   150.0   120.00
            HrmBnd1 CB NC EP   150.0   120.00
            HrmBnd1 CQ NC EP   150.0   120.00
            HrmBnd1 CT N3 EP   150.0   109.50
            HrmBnd1 H  N3 EP   150.0   109.50
            HrmBnd1 CT NT EP   150.0   109.50
            HrmBnd1 H  NT EP   150.0   109.50
            HrmBnd1 C  O  EP   150.0   120.00
            HrmBnd1 EP O  EP   150.0   120.00
            HrmBnd1 C  OH EP   150.0   120.00
            HrmBnd1 CT OH EP   150.0   109.50
            HrmBnd1 HO OH EP   150.0   109.50
            HrmBnd1 EP OH EP   150.0   109.50
            HrmBnd1 C  OS EP   150.0   109.50
            HrmBnd1 CM OS EP   150.0   109.50
            HrmBnd1 CS OS EP   150.0   109.50
            HrmBnd1 CT OS EP   150.0   109.50
            HrmBnd1 EP OS EP   150.0   109.50
            HrmBnd1 CT S  EP   150.0    90.00
            HrmBnd1 CT SH EP   150.0    90.00
            HrmBnd1 P  OS EP   150.0   109.50
            HrmBnd1 EP S  EP   150.0   180.00
            HrmBnd1 EP SH EP   150.0   180.00
            HrmBnd1 HS SH EP   150.0    90.00
            HrmBnd1 H1 CI CT    50.0   109.50
            HrmBnd1 H1 CI H1    35.0   109.50
            HrmBnd1 CI CT H1    50.0   109.50
            HrmBnd1 CI CT OS    50.0   109.50
            HrmBnd1 CI CT CT    40.0   109.50
            HrmBnd1 OS CI H1    50.0   109.50
            HrmBnd1 OS CI CT    50.0   109.50
            HrmBnd1 P  OS CI   100.0   120.50
            HrmBnd1 OH CI H1    50.0   109.50
            HrmBnd1 OH CI CT    50.0   109.50
            HrmBnd1 HO OH CI    55.0   108.50
            HrmBnd1 H5 C5 N*    50.0   123.05
            HrmBnd1 H5 C5 NB    50.0   123.05
            HrmBnd1 N* C5 NB    70.0   113.90
            HrmBnd1 CB N* C5    70.0   105.40
            HrmBnd1 C5 N* CT    70.0   128.80
            HrmBnd1 CB NB C5    70.0   103.80
            HrmBnd1 C4 C  NA    70.0   114.10
            HrmBnd1 C4 C  O     80.0   125.30
            HrmBnd1 C4 CA N2    70.0   120.10
            HrmBnd1 C4 CA NC    70.0   121.50
            HrmBnd1 C  C4 C4    63.0   120.70
            HrmBnd1 C  C4 CT    70.0   119.70
            HrmBnd1 C  C4 HA    50.0   119.70
            HrmBnd1 C  C4 H4    50.0   119.70
            HrmBnd1 CA C4 C4    63.0   117.00
            HrmBnd1 CA C4 HA    50.0   123.30
            HrmBnd1 CA C4 H4    50.0   123.30
            HrmBnd1 C4 C4 CT    70.0   119.70
            HrmBnd1 C4 C4 HA    50.0   119.70
            HrmBnd1 C4 C4 H4    50.0   119.70
            HrmBnd1 C4 C4 N*    70.0   121.20
            HrmBnd1 H4 C4 N*    50.0   119.10
            HrmBnd1 H1 CT C4    50.0   109.50
            HrmBnd1 HC CT C4    50.0   109.50
            HrmBnd1 C  N* C4    70.0   121.60
            HrmBnd1 C4 N* CT    70.0   121.20
            HrmBnd1 EP S  S    150.0    96.70
            HrmBnd1 C8 C8 C8    40.0   109.50
            HrmBnd1 C8 C8 CX    40.0   109.50
            HrmBnd1 C8 C8 H1    50.0   109.50
            HrmBnd1 C8 C8 HC    50.0   109.50
            HrmBnd1 C8 C8 HP    50.0   109.50
            HrmBnd1 C8 C8 N2    80.0   111.20
            HrmBnd1 C8 C8 N3    80.0   111.20
            HrmBnd1 CX C8 HC    50.0   109.50
            HrmBnd1 H1 C8 H1    35.0   109.50
            HrmBnd1 H1 C8 N2    50.0   109.50
            HrmBnd1 HC C8 HC    35.0   109.50
            HrmBnd1 HP C8 HP    35.0   109.50
            HrmBnd1 HP C8 N3    50.0   109.50
            HrmBnd1 O2 CO O2    80.0   126.00
            HrmBnd1 C  CX C8    63.0   111.10
            HrmBnd1 C8 CX H1    50.0   109.50
            HrmBnd1 C8 CX N     80.0   109.70
            HrmBnd1 C8 CX N3    80.0   111.20
            HrmBnd1 HP CX C8    50.0   109.50
            HrmBnd1 C8 N2 CA    50.0   123.20
            HrmBnd1 C8 N2 H     50.0   118.40
            HrmBnd1 C8 N3 H     50.0   109.50
            !
            ! Torsions
            !
            AmbTrs *  C  C  *    0 180   0   0  0.000 14.500  0.000  0.000 4.0
            AmbTrs *  C  CA *    0 180   0   0  0.000 14.500  0.000  0.000 4.0
            AmbTrs *  C  CB *    0 180   0   0  0.000 12.000  0.000  0.000 4.0
            AmbTrs *  C  CM *    0 180   0   0  0.000  8.700  0.000  0.000 4.0
            AmbTrs *  C  CS *    0 180   0   0  0.000  8.700  0.000  0.000 4.0
            AmbTrs *  C  CT *    0   0   0   0  0.000  0.000  0.000  0.000 6.0
            AmbTrs *  C  CX *    0   0   0   0  0.000  0.000  0.000  0.000 6.0
            AmbTrs *  C  N  *    0 180   0   0  0.000 10.000  0.000  0.000 4.0
            AmbTrs *  C  N* *    0 180   0   0  0.000  5.800  0.000  0.000 4.0
            AmbTrs *  C  NA *    0 180   0   0  0.000  5.400  0.000  0.000 4.0
            AmbTrs *  C  NC *    0 180   0   0  0.000  8.000  0.000  0.000 2.0
            AmbTrs *  C  O  *    0 180   0   0  0.000 11.200  0.000  0.000 4.0
            AmbTrs *  C  OH *    0 180   0   0  0.000  4.600  0.000  0.000 2.0
            AmbTrs *  C  OS *    0 180   0   0  0.000  5.400  0.000  0.000 2.0
            AmbTrs *  CA CA *    0 180   0   0  0.000 14.500  0.000  0.000 4.0
            AmbTrs *  CA CB *    0 180   0   0  0.000 14.000  0.000  0.000 4.0
            AmbTrs *  CA CM *    0 180   0   0  0.000 10.200  0.000  0.000 4.0
            AmbTrs *  CA CS *    0 180   0   0  0.000 10.200  0.000  0.000 4.0
            AmbTrs *  CA CN *    0 180   0   0  0.000 14.500  0.000  0.000 4.0
            AmbTrs *  CA CT *    0   0   0   0  0.000  0.000  0.000  0.000 6.0
            AmbTrs *  CA N2 *    0 180   0   0  0.000  9.600  0.000  0.000 4.0
            AmbTrs *  CA NA *    0 180   0   0  0.000  6.000  0.000  0.000 4.0
            AmbTrs *  CA NC *    0 180   0   0  0.000  9.600  0.000  0.000 2.0
            AmbTrs *  CA OH *    0 180   0   0  0.000  1.800  0.000  0.000 2.0
            AmbTrs *  CB CB *    0 180   0   0  0.000 21.800  0.000  0.000 4.0
            AmbTrs *  CB CN *    0 180   0   0  0.000 12.000  0.000  0.000 4.0
            AmbTrs *  CB N* *    0 180   0   0  0.000  6.600  0.000  0.000 4.0
            AmbTrs *  CB NB *    0 180   0   0  0.000  5.100  0.000  0.000 2.0
            AmbTrs *  CB NC *    0 180   0   0  0.000  8.300  0.000  0.000 2.0
            AmbTrs *  CC CT *    0   0   0   0  0.000  0.000  0.000  0.000 6.0
            AmbTrs *  CC CV *    0 180   0   0  0.000 20.600  0.000  0.000 4.0
            AmbTrs *  CC CW *    0 180   0   0  0.000 21.500  0.000  0.000 4.0
            AmbTrs *  CC NA *    0 180   0   0  0.000  5.600  0.000  0.000 4.0
            AmbTrs *  CC NB *    0 180   0   0  0.000  4.800  0.000  0.000 2.0
            AmbTrs *  CD CD *    0 180   0   0  0.000  4.000  0.000  0.000 4.0
            AmbTrs *  CD CT *    0   0   0   0  0.000  0.000  0.000  0.000 6.0
            AmbTrs *  CD CM *    0 180   0   0  0.000 26.600  0.000  0.000 4.0
            AmbTrs *  CD CS *    0 180   0   0  0.000 26.600  0.000  0.000 4.0
            AmbTrs *  CK N* *    0 180   0   0  0.000  6.800  0.000  0.000 4.0
            AmbTrs *  CK NB *    0 180   0   0  0.000 20.000  0.000  0.000 2.0
            AmbTrs *  CP N* *    0 180   0   0  0.000  6.800  0.000  0.000 4.0
            AmbTrs *  CP NB *    0 180   0   0  0.000 20.000  0.000  0.000 2.0
            AmbTrs *  CM CM *    0 180   0   0  0.000 26.600  0.000  0.000 4.0
            AmbTrs *  CM CT *    0   0   0   0  0.000  0.000  0.000  0.000 6.0
            AmbTrs *  CM N* *    0 180   0   0  0.000  7.400  0.000  0.000 4.0
            AmbTrs *  CM OS *    0 180   0   0  0.000  2.100  0.000  0.000 2.0
            AmbTrs *  CS CS *    0 180   0   0  0.000 26.600  0.000  0.000 4.0
            AmbTrs *  CS CT *    0   0   0   0  0.000  0.000  0.000  0.000 6.0
            AmbTrs *  CS N* *    0 180   0   0  0.000  7.400  0.000  0.000 4.0
            AmbTrs *  CS OS *    0 180   0   0  0.000  2.100  0.000  0.000 2.0
            AmbTrs *  CN NA *    0 180   0   0  0.000  6.100  0.000  0.000 4.0
            AmbTrs *  CQ NC *    0 180   0   0  0.000 13.600  0.000  0.000 2.0
            AmbTrs *  CT CT *    0   0   0   0  0.000  0.000  1.400  0.000 9.0
            AmbTrs *  CT CX *    0   0   0   0  0.000  0.000  1.400  0.000 9.0
            AmbTrs *  CT CY *    0   0   0   0  0.000  0.000  0.000  0.000 3.0
            AmbTrs *  CT CZ *    0   0   0   0  0.000  0.000  0.000  0.000 3.0
            AmbTrs *  CT N  *    0   0   0   0  0.000  0.000  0.000  0.000 6.0
            AmbTrs *  CX N  *    0   0   0   0  0.000  0.000  0.000  0.000 6.0
            AmbTrs *  CT N* *    0   0   0   0  0.000  0.000  0.000  0.000 6.0
            AmbTrs *  CT N2 *    0   0   0   0  0.000  0.000  0.000  0.000 6.0
            AmbTrs *  CT NT *    0   0   0   0  0.000  0.000  1.800  0.000 6.0
            AmbTrs *  CT N3 *    0   0   0   0  0.000  0.000  1.400  0.000 9.0
            AmbTrs *  CX N3 *    0   0   0   0  0.000  0.000  1.400  0.000 9.0
            AmbTrs *  CT OH *    0   0   0   0  0.000  0.000  0.500  0.000 3.0
            AmbTrs *  CT OS *    0   0   0   0  0.000  0.000  1.150  0.000 3.0
            AmbTrs *  CT S  *    0   0   0   0  0.000  0.000  1.000  0.000 3.0
            AmbTrs *  CT SH *    0   0   0   0  0.000  0.000  0.750  0.000 3.0
            AmbTrs *  C* CB *    0 180   0   0  0.000  6.700  0.000  0.000 4.0
            AmbTrs *  C* CT *    0   0   0   0  0.000  0.000  0.000  0.000 6.0
            AmbTrs *  C* CW *    0 180   0   0  0.000 26.100  0.000  0.000 4.0
            AmbTrs *  CR NA *    0 180   0   0  0.000  9.300  0.000  0.000 4.0
            AmbTrs *  CR NB *    0 180   0   0  0.000 10.000  0.000  0.000 2.0
            AmbTrs *  CV NB *    0 180   0   0  0.000  4.800  0.000  0.000 2.0
            AmbTrs *  CW NA *    0 180   0   0  0.000  6.000  0.000  0.000 4.0
            AmbTrs *  OH P  *    0   0   0   0  0.000  0.000  0.750  0.000 3.0
            AmbTrs *  OS P  *    0   0   0   0  0.000  0.000  0.750  0.000 3.0
            AmbTrs *  CI OS *    0   0   0   0  0.000  0.000  1.150  0.000 3.0
            AmbTrs *  CI OH *    0   0   0   0  0.000  0.000  0.500  0.000 3.0
            AmbTrs *  CI CT *    0   0   0   0  0.000  0.000  1.400  0.000 9.0
            AmbTrs *  C5 N* *    0 180   0   0  0.000  6.800  0.000  0.000 4.0
            AmbTrs *  C5 NB *    0 180   0   0  0.000 20.000  0.000  0.000 2.0
            AmbTrs *  C  C4 *    0 180   0   0  0.000  8.700  0.000  0.000 4.0
            AmbTrs *  CA C4 *    0 180   0   0  0.000 10.200  0.000  0.000 4.0
            AmbTrs *  C4 C4 *    0 180   0   0  0.000 26.600  0.000  0.000 4.0
            AmbTrs *  C4 CT *    0   0   0   0  0.000  0.000  0.000  0.000 6.0
            AmbTrs *  C4 N* *    0 180   0   0  0.000  7.400  0.000  0.000 4.0
            AmbTrs CT OS CT CI   0 180   0   0  0.000  0.100  0.383  0.000 1.0
            AmbTrs H1 CI CT OS   0   0   0   0  0.250  0.000  0.000  0.000 1.0
            AmbTrs H1 CI CT OH   0   0   0   0  0.250  0.000  0.000  0.000 1.0
            AmbTrs H1 CT CI OS   0   0   0   0  0.250  0.000  0.000  0.000 1.0
            AmbTrs H1 CT CI OH   0   0   0   0  0.250  0.000  0.000  0.000 1.0
            AmbTrs CI CT CT CT 180 180   0   0  0.200  0.250  0.180  0.000 1.0
            AmbTrs OP P  OS CA 180   0 180   0  0.000  0.000  0.000  0.000 1.0
            AmbTrs CC NA P  OP   0   0   0   0  0.000  0.000  0.240  0.000 1.0
            AmbTrs CR NA P  OP   0   0   0   0  0.000  0.000  0.000  0.000 1.0
            AmbTrs OS P  OS CI  31 351 357   0  0.185  1.257  0.355  0.000 1.0
            AmbTrs OH P  OS CI  31 351 357   0  0.185  1.257  0.355  0.000 1.0
            AmbTrs CT CT CI OS 190 295 348   0  1.178  0.092  0.963  0.000 1.0
            AmbTrs CT CT CI OH 190 295 348   0  1.178  0.092  0.963  0.000 1.0
            AmbTrs HC CT C4 C4   0   0 180   0  1.150  0.000  0.380  0.000 1.0
            AmbTrs C4 C4 C  O    0 180   0   0  0.000  2.175  0.300  0.000 1.0
            AmbTrs OS CT N* C5  68  15 171  19  0.966  1.074  0.458  0.309 1.0
            AmbTrs OS CT N* CP  74   6 168   3  0.705  1.065  0.443  0.256 1.0
            AmbTrs OS CT N* C4 146  16 185  32  1.225  1.635  0.937  0.310 1.0
            AmbTrs OS CT N* CS 149  16 179  16  1.025  1.749  0.581  0.351 1.0
            AmbTrs C  N  CX C    0   0   0   0  0.000  0.270  0.420  0.000 1.0
            AmbTrs N  CX C  N  180 180 180   0  0.450  1.580  0.550  0.000 1.0
            AmbTrs CT CT N  C    0   0   0   0  2.000  2.000  0.400  0.000 1.0
            AmbTrs CT CT C  N    0   0   0   0  0.200  0.200  0.400  0.000 1.0
            AmbTrs CT CX C  N    0   0   0   0  0.200  0.200  0.400  0.000 1.0
            AmbTrs CX CT C  N    0   0   0   0  0.200  0.200  0.400  0.000 1.0
            AmbTrs H  N  C  O    0 180   0   0  2.000  2.500  0.000  0.000 1.0
            AmbTrs CT S  S  CT   0   0   0   0  0.000  3.500  0.600  0.000 1.0
            AmbTrs OH P  OS CT   0   0   0   0  0.000  1.200  0.250  0.000 1.0
            AmbTrs OS P  OS CT   0   0   0   0  0.000  1.200  0.250  0.000 1.0
            AmbTrs H1 CT C  O    0   0 180   0  0.800  0.000  0.080  0.000 1.0
            AmbTrs H1 CX C  O    0   0 180   0  0.800  0.000  0.080  0.000 1.0
            AmbTrs HC CT C  O    0   0 180   0  0.800  0.000  0.080  0.000 1.0
            AmbTrs HC CT CT HC   0   0   0   0  0.000  0.000  0.150  0.000 1.0
            AmbTrs HC CT CT CT   0   0   0   0  0.000  0.000  0.160  0.000 1.0
            AmbTrs HC CT CT CX   0   0   0   0  0.000  0.000  0.160  0.000 1.0
            AmbTrs HC CT CM CM   0   0 180   0  1.150  0.000  0.380  0.000 1.0
            AmbTrs HC CT CS CS   0   0 180   0  1.150  0.000  0.380  0.000 1.0
            AmbTrs HO OH CT CT   0   0   0   0  0.250  0.000  0.160  0.000 1.0
            AmbTrs HO OH CT CX   0   0   0   0  0.250  0.000  0.160  0.000 1.0
            AmbTrs HO OH C  O    0 180   0   0  1.900  2.300  0.000  0.000 1.0
            AmbTrs CM CM C  O    0 180   0   0  0.000  2.175  0.300  0.000 1.0
            AmbTrs CT CM CM CT 180 180   0   0  1.900  6.650  0.000  0.000 1.0
            AmbTrs CS CS C  O    0 180   0   0  0.000  2.175  0.300  0.000 1.0
            AmbTrs CT CS CS CT 180 180   0   0  1.900  6.650  0.000  0.000 1.0
            AmbTrs CT CT CT CT 180 180   0   0  0.200  0.250  0.180  0.000 1.0
            AmbTrs CX CT CT CT 180 180   0   0  0.200  0.250  0.180  0.000 1.0
            AmbTrs CT CT NT CT   0 180   0   0  0.000  0.480  0.300  0.000 1.0
            AmbTrs CT CT OS CT   0 180   0   0  0.000  0.100  0.383  0.000 1.0
            AmbTrs CT CT OS C  180   0   0   0  0.800  0.000  0.383  0.000 1.0
            AmbTrs CT OS CT OS 180 180   0   0  1.350  0.850  0.100  0.000 1.0
            AmbTrs CT OS CT N*   0   0   0   0  0.000  0.650  0.383  0.000 1.0
            AmbTrs CT CZ CZ HZ   0   0   0   0  0.000  0.000  0.000  0.000 1.0
            AmbTrs O  C  OS CT 180 180   0   0  1.400  2.700  0.000  0.000 1.0
            AmbTrs OS CT N* CK   0   0   0   0  2.500  0.000  0.000  0.000 1.0
            AmbTrs OS CT N* CM   0   0   0   0  2.500  0.000  0.000  0.000 1.0
            AmbTrs OS CT CT OS   0   0   0   0  0.000  1.175  0.144  0.000 1.0
            AmbTrs OS CT CT OH   0   0   0   0  0.000  1.175  0.144  0.000 1.0
            AmbTrs OH CT CT OH   0   0   0   0  0.000  1.175  0.144  0.000 1.0
            AmbTrs F  CT CT F  180   0   0   0  1.200  0.000  0.000  0.000 1.0
            AmbTrs Cl CT CT Cl 180   0   0   0  0.450  0.000  0.000  0.000 1.0
            AmbTrs Br CT CT Br 180   0   0   0  0.000  0.000  0.000  0.000 1.0
            AmbTrs H1 CT CT OS   0   0   0   0  0.250  0.000  0.000  0.000 1.0
            AmbTrs H1 CT CT OH   0   0   0   0  0.250  0.000  0.000  0.000 1.0
            AmbTrs H1 CX CT OH   0   0   0   0  0.250  0.000  0.000  0.000 1.0
            AmbTrs H1 CT CT F    0   0   0   0  0.190  0.000  0.000  0.000 1.0
            AmbTrs H1 CT CT Cl   0   0   0   0  0.250  0.000  0.000  0.000 1.0
            AmbTrs H1 CT CT Br   0   0   0   0  0.550  0.000  0.000  0.000 1.0
            AmbTrs HC CT CT OS   0   0   0   0  0.250  0.000  0.000  0.000 1.0
            AmbTrs HC CT CT OH   0   0   0   0  0.250  0.000  0.000  0.000 1.0
            AmbTrs HC CT CT F    0   0   0   0  0.190  0.000  0.000  0.000 1.0
            AmbTrs HC CT CT Cl   0   0   0   0  0.250  0.000  0.000  0.000 1.0
            AmbTrs HC CT CT Br   0   0   0   0  0.550  0.000  0.000  0.000 1.0
            AmbTrs H1 CT NT EP   0   0   0   0  0.000  0.000  0.000  0.000 1.0
            AmbTrs CT CT NT EP   0   0   0   0  0.000  0.000  0.000  0.000 1.0
            AmbTrs CT C  N  EP   0 180   0   0  0.000  0.000  0.000  0.000 1.0
            AmbTrs O  C  N  EP   0 180   0   0  0.000  0.000  0.000  0.000 1.0
            AmbTrs H1 CT OH EP   0   0   0   0  0.000  0.000  0.000  0.000 1.0
            AmbTrs CT CT OH EP   0   0   0   0  0.000  0.000  0.000  0.000 1.0
            AmbTrs H1 CT OS EP   0   0   0   0  0.000  0.000  0.000  0.000 1.0
            AmbTrs H2 CT OS EP   0   0   0   0  0.000  0.000  0.000  0.000 1.0
            AmbTrs CT CT OS EP   0   0   0   0  0.000  0.000  0.000  0.000 1.0
            AmbTrs CM CM OS EP   0 180   0   0  0.000  0.000  0.000  0.000 1.0
            AmbTrs HA CM OS EP   0 180   0   0  0.000  0.000  0.000  0.000 1.0
            AmbTrs H4 CM OS EP   0 180   0   0  0.000  0.000  0.000  0.000 1.0
            AmbTrs CS CS OS EP   0 180   0   0  0.000  0.000  0.000  0.000 1.0
            AmbTrs HA CS OS EP   0 180   0   0  0.000  0.000  0.000  0.000 1.0
            AmbTrs H4 CS OS EP   0 180   0   0  0.000  0.000  0.000  0.000 1.0
            AmbTrs N  CT CT OH   0   0   0   0  0.000  1.490  0.156  0.000 1.0
            AmbTrs EP S  S  CT   0   0   0   0  0.000  0.000  0.000  0.000 1.0
            AmbTrs EP S  S  EP   0   0   0   0  0.000  0.000  0.000  0.000 1.0
            AmbTrs C8 CX N  C    0   0   0   0  2.000  1.800  0.800  0.000 1.0
            AmbTrs CT CX N  C    0   0   0   0  2.000  1.800  0.800  0.000 1.0
            AmbTrs N  C  CX C8   0   0   0   0  0.200  0.200  0.400  0.000 1.0
            AmbTrs N  C  CX CT   0   0   0   0  0.200  0.200  0.400  0.000 1.0
            AmbTrs *  C8 C8 *    0   0   0   0  0.000  0.000  1.400  0.000 9.0
            AmbTrs C8 C8 C8 HC   0   0   0   0  0.000  0.000  0.160  0.000 1.0
            AmbTrs CX C8 C8 HC   0   0   0   0  0.000  0.000  0.160  0.000 1.0
            AmbTrs HC C8 C8 HC   0   0   0   0  0.000  0.000  0.150  0.000 1.0
            AmbTrs *  C8 CX *    0   0   0   0  0.000  0.000  1.400  0.000 9.0
            AmbTrs *  C8 N2 *    0   0   0   0  0.000  0.000  0.000  0.000 6.0
            AmbTrs *  C8 N3 *    0   0   0   0  0.000  0.000  1.400  0.000 9.0
            AmbTrs C  CX C8 C8   0   0   0   0  0.000  0.000  1.400  0.000 9.0
            AmbTrs N  CX C8 C8   0   0   0   0  0.000  0.000  1.400  0.000 9.0
            AmbTrs N3 CX C8 C8   0   0   0   0  0.000  0.000  1.400  0.000 9.0
            AmbTrs CX C8 C8 C8 180 180   0   0  0.200  0.250  0.180  0.000 1.0
            AmbTrs C8 C8 C8 N2   0   0   0   0  0.000  0.000  1.400  0.000 9.0
            AmbTrs C8 C8 N2 CA   0   0   0   0  0.000  0.000  0.000  0.000 1.0
            AmbTrs C8 C8 C8 C8 180 180   0   0  0.200  0.250  0.180  0.000 1.0
            AmbTrs C8 C8 C8 N3   0   0   0   0  0.000  0.000  1.400  0.000 9.0
            AmbTrs C8 N2 CA N2   0 180   0   0  0.000  2.400  0.000  0.000 1.0
            AmbTrs H  N2 CA N2   0 180   0   0  0.000  2.400  0.000  0.000 1.0
            AmbTrs C8 C8 N3 H    0   0   0   0  0.000  0.000  1.400  0.000 9.0
            AmbTrs C  CX CT CC 180 180   0   0  0.143  0.244  0.219  0.025 1.0
            AmbTrs N  CX CT CC 180 180   0   0  0.306  0.221  0.219  0.089 1.0
            AmbTrs N3 CX CT CC 180 180   0   0  0.306  0.221  0.219  0.089 1.0
            AmbTrs CX CT CC NA 180 180   0 180  0.160  0.392  0.686  0.037 1.0
            AmbTrs CX CT CC CV 180   0 180 180  0.674  0.750  0.122  0.010 1.0
            AmbTrs CX CT CC NB   0   0   0 180  0.690  0.204  0.740  0.047 1.0
            AmbTrs C  CX CT C* 180 180   0   0  0.017  0.353  0.234  0.074 1.0
            AmbTrs N  CX CT C*   0 180   0   0  0.079  0.313  0.234  0.031 1.0
            AmbTrs N3 CX CT C*   0 180   0   0  0.079  0.313  0.234  0.031 1.0
            AmbTrs CX CT C* CB   0   0   0 180  0.365  0.408  0.819  0.095 1.0
            AmbTrs CX CT C* CW   0   0   0   0  0.000  0.000  0.000  0.000 1.0
            AmbTrs C  CX CT CA   0 180   0 180  0.055  0.469  0.192  0.012 1.0
            AmbTrs N  CX CT CA 180 180   0 180  0.012  0.290  0.192  0.007 1.0
            AmbTrs N3 CX CT CA 180 180   0 180  0.012  0.290  0.192  0.007 1.0
            AmbTrs CX CT CA CA   0 180   0 180  0.000  0.069  0.000  0.048 1.0
            AmbTrs CA C  OH HO   0 180   0   0  0.000  0.883  0.000  0.065 1.0
            !
            ! Improper torsions
            !
            ImpTrs *  *  C  O   10.5  180.0 2.0
            ImpTrs *  O2 C  O2  10.5  180.0 2.0
            ImpTrs *  *  N  H    1.0  180.0 2.0
            ImpTrs *  *  N2 H    1.0  180.0 2.0
            ImpTrs *  *  NA H    1.0  180.0 2.0
            ImpTrs *  N2 CA N2  10.5  180.0 2.0
            ImpTrs *  CT N  CT   1.0  180.0 2.0
            ImpTrs *  CT N  CX   1.0  180.0 2.0
            ImpTrs *  *  CA HA   1.1  180.0 2.0
            ImpTrs *  *  CW H4   1.1  180.0 2.0
            ImpTrs *  *  CR H5   1.1  180.0 2.0
            ImpTrs *  *  CV H4   1.1  180.0 2.0
            ImpTrs *  *  CQ H5   1.1  180.0 2.0
            ImpTrs *  *  CK H5   1.1  180.0 2.0
            ImpTrs *  *  CP H5   1.1  180.0 2.0
            ImpTrs *  *  CM H4   1.1  180.0 2.0
            ImpTrs *  *  CM HA   1.1  180.0 2.0
            ImpTrs *  *  CS H4   1.1  180.0 2.0
            ImpTrs *  *  CS HA   1.1  180.0 2.0
            ImpTrs *  *  CA H4   1.1  180.0 2.0
            ImpTrs *  *  CA H5   1.1  180.0 2.0
            ImpTrs CB CK N* CT   1.0  180.0 2.0
            ImpTrs CB CP N* CT   1.0  180.0 2.0
            ImpTrs C  CM N* CT   1.0  180.0 2.0
            ImpTrs C  CS N* CT   1.0  180.0 2.0
            ImpTrs C  CS CM CT   1.1  180.0 2.0
            ImpTrs CT O  C  OH  10.5  180.0 2.0
            ImpTrs CT CV CC NA   1.1  180.0 2.0
            ImpTrs CT CW CC NB   1.1  180.0 2.0
            ImpTrs CT CW CC NA   1.1  180.0 2.0
            ImpTrs CB CT C* CW   1.1  180.0 2.0
            ImpTrs CA CA CA CT   1.1  180.0 2.0
            ImpTrs C  CM CM CT   1.1  180.0 2.0
            ImpTrs C  CS CS CT   1.1  180.0 2.0
            ImpTrs CM N2 CA NC   1.1  180.0 2.0
            ImpTrs CS N2 CA NC   1.1  180.0 2.0
            ImpTrs CB N2 CA NC   1.1  180.0 2.0
            ImpTrs N2 NA CA NC   1.1  180.0 2.0
            ImpTrs CA CA C  OH   1.1  180.0 2.0
            ImpTrs CA CA CA OH   1.1  180.0 2.0
            ImpTrs H5 O  C  OH   1.1  180.0 2.0
            ImpTrs H5 O  C  OS   1.1  180.0 2.0
            ImpTrs CM CT CM HA   1.1  180.0 2.0
            ImpTrs CS CT CS HA   1.1  180.0 2.0
            ImpTrs Br CA CA CA   1.1  180.0 2.0
            ImpTrs CM H4 C  O    1.1  180.0 2.0
            ImpTrs CS H4 C  O    1.1  180.0 2.0
            ImpTrs C  CT N  H    1.1  180.0 2.0
            ImpTrs C  CX N  H    1.1  180.0 2.0
            ImpTrs C  CT N  O    1.1  180.0 2.0
            ImpTrs *  *  C5 H5   1.1  180.0 2.0
            ImpTrs CB C5 N* CT   1.0  180.0 2.0
            ImpTrs *  *  C4 H4   1.1  180.0 2.0
            ImpTrs *  *  C4 HA   1.1  180.0 2.0
            ImpTrs C  C4 N* CT   1.0  180.0 2.0
            ImpTrs C  C4 C4 CT   1.1  180.0 2.0
            ImpTrs C4 N2 CA NC   1.1  180.0 2.0
            ImpTrs CA CA C  OS   1.1  180.0 2.0
            ImpTrs CR CC NA P    1.1  180.0 2.0
            ImpTrs *  O2 CO O2  10.5  180.0 2.0
            !
            ! Vanderwaals parameters
            !
            VDW H  0.6000  0.0157
            VDW HO 0.0000  0.0000
            VDW HS 0.6000  0.0157
            VDW HC 1.4870  0.0157
            VDW H1 1.3870  0.0157
            VDW H2 1.2870  0.0157
            VDW H3 1.1870  0.0157
            VDW HP 1.1000  0.0157
            VDW HA 1.4590  0.0150
            VDW H4 1.4090  0.0150
            VDW H5 1.3590  0.0150
            VDW HW 0.0000  0.0000
            VDW HZ 1.4590  0.0150
            VDW O  1.6612  0.2100
            VDW O2 1.6612  0.2100
            VDW OW 1.7683  0.1520
            VDW OH 1.7210  0.2104
            VDW OS 1.6837  0.1700
            VDW OP 1.8500  0.1700
            VDW C* 1.9080  0.0860
            VDW CB 1.9080  0.0860
            VDW CC 1.9080  0.0860
            VDW CD 1.9080  0.0860
            VDW CK 1.9080  0.0860
            VDW CM 1.9080  0.0860
            VDW CN 1.9080  0.0860
            VDW CQ 1.9080  0.0860
            VDW CR 1.9080  0.0860
            VDW CV 1.9080  0.0860
            VDW CW 1.9080  0.0860
            VDW CY 1.9080  0.0860
            VDW CZ 1.9080  0.0860
            VDW CP 1.9080  0.0860
            VDW CS 1.9080  0.0860
            VDW CI 1.9080  0.1094
            VDW C5 1.9080  0.0860
            VDW C4 1.9080  0.0860
            VDW CT 1.9080  0.1094
            VDW CX 1.9080  0.1094
            VDW C  1.9080  0.0860
            VDW N  1.8240  0.1700
            VDW NA 1.8240  0.1700
            VDW N2 1.8240  0.1700
            VDW N* 1.8240  0.1700
            VDW NC 1.8240  0.1700
            VDW NB 1.8240  0.1700
            VDW NT 1.8240  0.1700
            VDW NY 1.8240  0.1700
            VDW N3 1.8240  0.1700
            VDW S  2.0000  0.2500
            VDW SH 2.0000  0.2500
            VDW P  2.1000  0.2000
            VDW MG 0.7926  0.8947
            VDW C0 1.7131  0.459789
            VDW Zn 1.10    0.0125
            VDW F  1.75    0.061
            VDW Cl 1.948   0.265
            VDW Br 2.22    0.320
            VDW I  2.35    0.40
            VDW EP 0.00    0.0000
            VDW C8 1.9080  0.1094
            VDW CO 1.9080  0.0860
 Initial command:
 /opt/apps/Gaussian/g16/l1.exe "/tmp/288598.mgr/Gau-886766.inp" -scrdir="/tmp/288598.mgr/"
 Entering Link 1 = /opt/apps/Gaussian/g16/l1.exe PID=    886767.
  
 Copyright (c) 1988,1990,1992,1993,1995,1998,2003,2009,2016,
            Gaussian, Inc.  All Rights Reserved.
  
 This is part of the Gaussian(R) 16 program.  It is based on
 the Gaussian(R) 09 system (copyright 2009, Gaussian, Inc.),
 the Gaussian(R) 03 system (copyright 2003, Gaussian, Inc.),
 the Gaussian(R) 98 system (copyright 1998, Gaussian, Inc.),
 the Gaussian(R) 94 system (copyright 1995, Gaussian, Inc.),
 the Gaussian 92(TM) system (copyright 1992, Gaussian, Inc.),
 the Gaussian 90(TM) system (copyright 1990, Gaussian, Inc.),
 the Gaussian 88(TM) system (copyright 1988, Gaussian, Inc.),
 the Gaussian 86(TM) system (copyright 1986, Carnegie Mellon
 University), and the Gaussian 82(TM) system (copyright 1983,
 Carnegie Mellon University). Gaussian is a federally registered
 trademark of Gaussian, Inc.
  
 This software contains proprietary and confidential information,
 including trade secrets, belonging to Gaussian, Inc.
  
 This software is provided under written license and may be
 used, copied, transmitted, or stored only in accord with that
 written license.
  
 The following legend is applicable only to US Government
 contracts under FAR:
  
                    RESTRICTED RIGHTS LEGEND
  
 Use, reproduction and disclosure by the US Government is
 subject to restrictions as set forth in subparagraphs (a)
 and (c) of the Commercial Computer Software - Restricted
 Rights clause in FAR 52.227-19.
  
 Gaussian, Inc.
 340 Quinnipiac St., Bldg. 40, Wallingford CT 06492
  
  
 ---------------------------------------------------------------
 Warning -- This program may not be used in any manner that
 competes with the business of Gaussian, Inc. or will provide
 assistance to any competitor of Gaussian, Inc.  The licensee
 of this program is prohibited from giving any competitor of
 Gaussian, Inc. access to this program.  By using this program,
 the user acknowledges that Gaussian, Inc. is engaged in the
 business of creating and licensing software in the field of
 computational chemistry and represents and warrants to the
 licensee that it is not a competitor of Gaussian, Inc. and that
 it will not use this program in any manner prohibited above.
 ---------------------------------------------------------------
  

 Cite this work as:
 Gaussian 16, Revision A.03,
 M. J. Frisch, G. W. Trucks, H. B. Schlegel, G. E. Scuseria, 
 M. A. Robb, J. R. Cheeseman, G. Scalmani, V. Barone, 
 G. A. Petersson, H. Nakatsuji, X. Li, M. Caricato, A. V. Marenich, 
 J. Bloino, B. G. Janesko, R. Gomperts, B. Mennucci, H. P. Hratchian, 
 J. V. Ortiz, A. F. Izmaylov, J. L. Sonnenberg, D. Williams-Young, 
 F. Ding, F. Lipparini, F. Egidi, J. Goings, B. Peng, A. Petrone, 
 T. Henderson, D. Ranasinghe, V. G. Zakrzewski, J. Gao, N. Rega, 
 G. Zheng, W. Liang, M. Hada, M. Ehara, K. Toyota, R. Fukuda, 
 J. Hasegawa, M. Ishida, T. Nakajima, Y. Honda, O. Kitao, H. Nakai, 
 T. Vreven, K. Throssell, J. A. Montgomery, Jr., J. E. Peralta, 
 F. Ogliaro, M. J. Bearpark, J. J. Heyd, E. N. Brothers, K. N. Kudin, 
 V. N. Staroverov, T. A. Keith, R. Kobayashi, J. Normand, 
 K. Raghavachari, A. P. Rendell, J. C. Burant, S. S. Iyengar, 
 J. Tomasi, M. Cossi, J. M. Millam, M. Klene, C. Adamo, R. Cammi, 
 J. W. Ochterski, R. L. Martin, K. Morokuma, O. Farkas, 
 J. B. Foresman, and D. J. Fox, Gaussian, Inc., Wallingford CT, 2016.
 
 ******************************************
 Gaussian 16:  ES64L-G16RevA.03 25-Dec-2016
                 9-Nov-2022 
 ******************************************
 %chk=5hls_a_flip_ligH.chk
 %mem=24GB
 %nprocshared=24
 Will use up to   24 processors via shared memory.
 ----------------------------------------------------------------------
 # oniom(external='gau_oniom_ani.py model.gjf mlatom 2x':external='gau_
 xtb':amber=softonly) nosymm geom=connectivity force punch=(coord,deriv
 atives)
 ----------------------------------------------------------------------
 1/18=1000020,30=1,38=1,52=3,56=2,57=2,61=3,64=303/1,3;
 2/12=2,15=1,17=6,18=5,40=1/2;
 1/18=1000020,30=1,38=1,52=3,53=6172,61=3,64=303/20;
 3/5=30,11=9,25=1,30=1,41=10300000,43=2,71=1/1;
 4/20=11,22=1,24=3/2;
 7/7=1,30=1,33=-1,44=-1/16;
 1/18=1000020,30=1,52=3,53=5062,61=3/20;
 3/11=9,25=1,30=1,41=9900000,43=2,71=1/1;
 4/20=17,22=1,24=3,113=2,114=2/2;
 6/7=2,8=2,9=2,10=2/1;
 7/7=1,30=1,33=-1,44=-1/16;
 1/18=1000020,30=1,52=3,53=4052,61=3/20;
 3/11=9,25=1,30=1,41=9900000,43=2,71=1/1;
 4/20=17,22=1,24=3,113=3,114=3/2;
 6/7=2,8=2,9=2,10=2/1;
 7/7=1,30=1,33=-1,44=-1/16;
 1/18=1000020,30=1,52=3,53=3042,61=3,64=303/20;
 3/5=30,11=9,25=1,30=1,41=10300000,43=2,71=1/1;
 4/20=11,22=1,24=3/2;
 7/7=1,30=1,33=-1,44=-1/16;
 1/18=1000020,30=1,52=3,53=2032,61=3/20;
 3/11=9,25=1,30=1,41=9900000,43=2,71=1/1;
 4/20=17,22=1,24=3,113=2,114=3/2;
 6/7=2,8=2,9=2,10=2/1;
 7/7=1,30=1,33=-1,44=-1/16;
 1/18=1000020,30=1,52=3,53=1022,61=3,64=303/20;
 3/5=30,11=9,25=1,30=1,41=10300000,43=2,71=1/1;
 4/20=11,22=1,24=3/2;
 7/7=1,30=1,33=-1,44=-1/16;
 1/18=1000020,30=1,52=3,53=6015,61=3,64=303/20;
 7/9=1,44=-1,126=2/16;
 1/18=1000020,30=1,52=3,61=3,64=303/3;
 99/10=6/99;
 ONIOM: restoring gridpoint  6 on chk file.
 -------------------
 Title Card Required
 -------------------
 Symbolic Z-matrix:
 Charge =  1 Multiplicity = 1 for low   level calculation on real  system.
 Charge =  0 Multiplicity = 1 for med   level calculation on mid   system.
 Charge =  0 Multiplicity = 1 for low   level calculation on mid   system.
 Charge =  0 Multiplicity = 1 for high  level calculation on model system.
 Charge =  0 Multiplicity = 1 for med   level calculation on model system.
 Charge =  0 Multiplicity = 1 for low   level calculation on model system.
 N-N3-0.184900        -1    14.691   -22.173    8.998    L 
 C-CT-0.056700        -1    15.007   -20.75     8.676    L 
 C-C-0.616300         -1    14.008   -19.846    9.391    L 
 O-O--0.572200        -1    12.836   -20.137    9.358    L 
 C-CT-0.259600        -1    14.956   -20.528    7.168    L 
 O-OH--0.671400       -1    16.275   -20.518    6.621    L 
 H-H-0.189800         -1    14.446   -22.65     8.158    L 
 H-HP-0.078200        -1    15.917   -20.559    9.033    L 
 H-H1-0.027300        -1    14.442   -21.265    6.748    L 
 H-H1-0.027300        -1    14.528   -19.652    6.983    L 
 H-HO-0.423900        -1    16.945   -20.658    7.337    L 
 H-H-0.189800         -1    15.492   -22.6      9.409    L 
 H-H-0.189800         -1    13.928   -22.2      9.638    L 
 N-N--0.415700        -1    14.489   -18.891    10.18    L 
 C-CT--0.038900       -1    13.623   -17.981    10.912   L 
 C-C-0.597300         -1    13.994   -16.549    10.534   L 
 O-O--0.567900        -1    15.088   -16.304    10.07    L 
 C-CT-0.365400        -1    13.791   -18.138    12.448   L 
 O-OH--0.676100       -1    15.184   -18.076    12.807   L 
 C-CT--0.243800       -1    13.193   -19.457    12.942   L 
 H-H-0.271900         -1    15.53    -18.853    10.227   L 
 H-H1-0.100700        -1    12.678   -18.143    10.637   L 
 H-H1-0.004300        -1    13.309   -17.364    12.908   L 
 H-HO-0.410200        -1    15.712   -17.943    11.942   L 
 H-HC-0.064200        -1    13.871   -20.188    12.852   L 
 H-HC-0.064200        -1    12.928   -19.367    13.903   L 
 H-HC-0.064200        -1    12.386   -19.685    12.396   L 
 N-N--0.415700        -1    13.069   -15.619    10.708   L 
 C-CT-0.014300        -1    13.419   -14.211    10.751   L 
 C-C-0.597300         -1    13.962   -13.83     12.119   L 
 O-O--0.567900        -1    13.693   -14.501    13.093   L 
 C-CT--0.204100       -1    12.19    -13.368    10.425   L 
 C-C-0.713000         -1    11.584   -13.721    9.073    L 
 O-O--0.593100        -1    12.242   -13.629    8.033    L 
 N-N--0.919100        -1    10.318   -14.124    9.089    L 
 H-H-0.271900         -1    12.1     -15.975    10.808   L 
 H-H1-0.104800        -1    14.163   -14.066    10.088   L 
 H-HC-0.079700        -1    11.502   -13.523    11.127   L 
 H-HC-0.079700        -1    12.457   -12.409    10.409   L 
 H-H-0.419600         -1    9.818    -14.176    9.953    L 
 H-H-0.419600         -1    9.862    -14.376    8.234    L 
 N-N--0.254800        -1    14.71    -12.718    12.187   L 
 C-CT--0.026600       -1    15.062   -12.19     13.482   L 
 C-C-0.589600         -1    13.865   -11.585    14.2     L 
 O-O--0.574800        -1    12.902   -11.206    13.568   L 
 C-CT--0.007000       -1    16.072   -11.087    13.144   L 
 C-CT-0.018900        -1    15.645   -10.584    11.821   L 
 C-CT-0.019200        -1    15.15    -11.818    11.099   L 
 H-H1-0.064100        -1    15.498   -12.901    14.061   L 
 H-HC-0.025300        -1    16.042   -10.362    13.839   L 
 H-HC-0.025300        -1    17.003   -11.463    13.111   L 
 H-HC-0.021300        -1    14.909   -9.911     11.91    L 
 H-HC-0.021300        -1    16.412   -10.173    11.326   L 
 H-H1-0.039100        -1    14.384   -11.602    10.492   L 
 H-H1-0.039100        -1    15.882   -12.246    10.565   L 
 N-N--0.254800        -1    13.962   -11.423    15.524   L 
 C-CT--0.026600       -1    12.98    -10.605    16.247   L 
 C-C-0.589600         -1    12.904   -9.221     15.644   L 
 O-O--0.574800        -1    13.934   -8.714     15.171   L 
 C-CT--0.007000       -1    13.554   -10.528    17.681   L 
 C-CT-0.018900        -1    14.958   -11.011    17.611   L 
 C-CT-0.019200        -1    15.101   -11.842    16.358   L 
 H-H1-0.064100        -1    12.08    -11.052    16.247   L 
 H-HC-0.025300        -1    13.511   -9.575     18.019   L 
 H-HC-0.025300        -1    13.001   -11.099    18.306   L 
 H-HC-0.021300        -1    15.605   -10.228    17.592   L 
 H-HC-0.021300        -1    15.186   -11.565    18.431   L 
 H-H1-0.039100        -1    15.967   -11.652    15.893   L 
 H-H1-0.039100        -1    15.047   -12.822    16.563   L 
 N-N--0.254800        -1    11.709   -8.612     15.624   L 
 C-CT--0.026600       -1    11.63    -7.3       14.987   L 
 C-C-0.589600         -1    12.249   -6.228     15.872   L 
 O-O--0.574800        -1    12.599   -6.494     17.017   L 
 C-CT--0.007000       -1    10.124   -7.072     14.799   L 
 C-CT-0.018900        -1    9.488    -7.886     15.888   L 
 C-CT-0.019200        -1    10.391   -9.082     16.098   L 
 H-H1-0.064100        -1    12.071   -7.314     14.081   L 
 H-HC-0.025300        -1    9.898    -6.102     14.901   L 
 H-HC-0.025300        -1    9.828    -7.389     13.898   L 
 H-HC-0.021300        -1    9.412    -7.345     16.733   L 
 H-HC-0.021300        -1    8.566    -8.18      15.613   L 
 H-H1-0.039100        -1    10.436   -9.338     17.063   L 
 H-H1-0.039100        -1    10.084   -9.868     15.56    L 
 N-N--0.254800        -1    12.443   -5.018     15.337   L 
 C-CT--0.026600       -1    12.935   -3.948     16.209   L 
 C-C-0.589600         -1    11.943   -3.641     17.32    L 
 O-O--0.574800        -1    10.728   -3.731     17.097   L 
 C-CT--0.007000       -1    13.083   -2.755     15.247   L 
 C-CT-0.018900        -1    13.353   -3.372     13.93    L 
 C-CT-0.019200        -1    12.614   -4.681     13.91    L 
 H-H1-0.064100        -1    13.838   -4.186     16.59    L 
 H-HC-0.025300        -1    12.237   -2.214     15.233   L 
 H-HC-0.025300        -1    13.84    -2.165     15.54    L 
 H-HC-0.021300        -1    13.034   -2.772     13.18    L 
 H-HC-0.021300        -1    14.345   -3.522     13.801   L 
 H-H1-0.039100        -1    11.721   -4.592     13.463   L 
 H-H1-0.039100        -1    13.143   -5.395     13.443   L 
 N-N--0.516300        -1    12.453   -3.229     18.481   L 
 C-CT-0.039700        -1    11.607   -2.767     19.572   L 
 C-C-0.536600         -1    10.781   -1.587     19.124   L 
 O-O--0.581900        -1    11.268   -0.701     18.429   L 
 C-CT-0.056000        -1    12.439   -2.376     20.803   L 
 C-CT-0.013600        -1    13.385   -1.196     20.558   L 
 C-C-0.805400         -1    14.194   -0.843     21.805   L 
 O-O2--0.818800       -1    14.099   -1.599     22.795   L 
 O-O2--0.818800       -1    14.838    0.235     21.807   L 
 H-H-0.293600         -1    13.491   -3.267     18.535   L 
 H-H1-0.110500        -1    11.003   -3.514     19.869   L 
 H-HC--0.017300       -1    11.816   -2.112     21.513   L 
 H-HC--0.017300       -1    12.989   -3.149     21.051   L 
 H-HC--0.042500       -1    14.017   -1.452     19.858   L 
 H-HC--0.042500       -1    12.847   -0.414     20.325   L 
 N-N--0.415700        -1    9.551    -1.521     19.621   L 
 C-CT--0.038900       -1    8.668    -0.385     19.37    L 
 C-C-0.597300         -1    8.29      0.309     20.712   L 
 O-O--0.567900        -1    7.477     1.222     20.775   L 
 C-CT-0.365400        -1    7.335    -0.824     18.735   L 
 O-OH--0.676100       -1    6.62     -1.716     19.63    L 
 C-CT--0.243800       -1    7.544    -1.463     17.378   L 
 H-H-0.271900         -1    9.272    -2.342     20.2     L 
 H-H1-0.100700        -1    9.151     0.287     18.808   L 
 H-H1-0.004300        -1    6.75     -0.001     18.586   L 
 H-HO-0.410200        -1    7.2      -1.821     20.463   L 
 H-HC-0.064200        -1    7.612    -2.46      17.474   L 
 H-HC-0.064200        -1    6.772    -1.246     16.774   L 
 H-HC-0.064200        -1    8.39     -1.118     16.962   L 
 N-N--0.415700        -1    8.811    -0.22      21.789   L 
 C-CT--0.024900       -1    8.721     0.454     23.05    L 
 C-C-0.597300         -1    9.955     0.132     23.871   L 
 O-O--0.567900        -1    10.579   -0.945     23.752   L 
 C-CT-0.211700        -1    7.462     0.018     23.799   L 
 O-OH--0.654600       -1    7.721    -1.177     24.505   L 
 H-H-0.271900         -1    9.278    -1.138     21.652   L 
 H-H1-0.084300        -1    8.712     1.443     22.888   L 
 H-H1-0.035200        -1    7.209     0.729     24.44    L 
 H-H1-0.035200        -1    6.738    -0.141     23.141   L 
 H-HO-0.427500        -1    8.65     -1.485     24.375   L 
 N-N--0.415700        -1    10.244    1.024     24.803   L 
 C-CT-0.014300        -1    11.337    0.805     25.71    L 
 C-C-0.597300         -1    11.274    1.794     26.844   L 
 O-O--0.567900        -1    11.627    2.948     26.679   L 
 C-CT--0.204100       -1    12.635    0.943     24.96    L 
 C-C-0.713000         -1    13.826    0.587     25.802   L 
 O-O--0.593100        -1    13.781    0.615     27.021   L 
 N-N--0.919100        -1    14.934    0.293     25.138   L 
 H-H-0.271900         -1    9.633     1.86      24.816   L 
 H-H1-0.104800        -1    11.221   -0.112     26.109   L 
 H-HC-0.079700        -1    12.614    0.337     24.165   L 
 H-HC-0.079700        -1    12.731    1.891     24.655   L 
 H-H-0.419600         -1    14.953    0.32      24.14    L 
 H-H-0.419600         -1    15.767    0.041     25.641   L 
 N-N--0.254800        -1    10.867    1.341     28.028   L 
 C-CT--0.026600       -1    10.59     2.267     29.127   L 
 C-C-0.589600         -1    11.862    2.992     29.618   L 
 O-O--0.574800        -1    11.797    4.076     30.204   L 
 C-CT--0.007000       -1    10.048    1.34      30.213   L 
 C-CT-0.018900        -1    9.533     0.13      29.493   L 
 C-CT-0.019200        -1    10.487   -0.047     28.366   L 
 H-H1-0.064100        -1    9.886     2.942     28.862   L 
 H-HC-0.025300        -1    10.777    1.085     30.861   L 
 H-HC-0.025300        -1    9.309     1.788     30.73    L 
 H-HC-0.021300        -1    9.535    -0.663     30.103   L 
 H-HC-0.021300        -1    8.603     0.294     29.164   L 
 H-H1-0.039100        -1    11.296   -0.569     28.638   L 
 H-H1-0.039100        -1    10.058   -0.49      27.576   L 
 N-N--0.415700        -1    13.015    2.412     29.323   L 
 C-CT-0.014300        -1    14.241    3.036     29.773   L 
 C-C-0.597300         -1    14.913    3.938     28.747   L 
 O-O--0.567900        -1    16.022    4.459     29.002   L 
 C-CT--0.204100       -1    15.176    1.967     30.315   L 
 C-C-0.713000         -1    14.704    1.439     31.644   L 
 O-O--0.593100        -1    13.838    2.045     32.297   L 
 N-N--0.919100        -1    15.316    0.356     32.096   L 
 H-H-0.271900         -1    12.961    1.546     28.787   L 
 H-H1-0.104800        -1    14.003    3.627     30.572   L 
 H-HC-0.079700        -1    15.208    1.216     29.665   L 
 H-HC-0.079700        -1    16.079    2.366     30.431   L 
 H-H-0.419600         -1    16.054   -0.065     31.566   L 
 H-H-0.419600         -1    15.044   -0.047     32.972   L 
 N-N--0.347900        -1    14.246    4.143     27.615   L 
 C-CT--0.240000       -1    14.663    5.139     26.632   L 
 C-C-0.734100         -1    13.892    6.422     26.832   L 
 O-O--0.589400        -1    12.676    6.396     26.918   L 
 C-CT--0.009400       -1    14.412    4.624     25.221   L 
 C-CT-0.018700        -1    14.995    5.53      24.171   L 
 C-CT--0.047900       -1    14.385    5.239     22.812   L 
 C-CT--0.014300       -1    14.82     6.302     21.819   L 
 N-N3--0.385400       -1    14.23     7.617     22.189   L 
 H-H-0.274700         -1    13.407    3.536     27.491   L 
 H-H1-0.142600        -1    15.644    5.322     26.755   L 
 H-HC-0.036200        -1    14.831    3.728     25.138   L 
 H-HC-0.036200        -1    13.43     4.564     25.083   L 
 H-HC-0.010300        -1    14.806    6.482     24.41    L 
 H-HC-0.010300        -1    15.982    5.387     24.117   L 
 H-HC-0.062100        -1    14.706    4.36      22.496   L 
 H-HC-0.062100        -1    13.401    5.26      22.888   L 
 H-HP-0.113500        -1    15.814    6.372     21.831   L 
 H-HP-0.113500        -1    14.507    6.045     20.908   L 
 H-H-0.340000         -1    14.068    8.153     21.361   L 
 H-H-0.340000         -1    13.364    7.47      22.666   L 
 H-H-0.340000         -1    14.863    8.108     22.787   L 
 N-N--0.254800        -1    14.601    7.549     26.954   L 
 C-CT--0.026600       -1    13.933    8.84      27.086   L 
 C-C-0.589600         -1    12.952    9.092     25.937   L 
 O-O--0.574800        -1    13.158    8.601     24.822   L 
 C-CT--0.007000       -1    15.092    9.855     27.052   L 
 C-CT-0.018900        -1    16.311    9.07      27.397   L 
 C-CT-0.019200        -1    16.068    7.667     26.928   L 
 H-H1-0.064100        -1    13.46     8.912     27.976   L 
 H-HC-0.025300        -1    15.171    10.264    26.137   L 
 H-HC-0.025300        -1    14.932    10.59     27.719   L 
 H-HC-0.021300        -1    17.125    9.465     26.945   L 
 H-HC-0.021300        -1    16.474    9.093     28.395   L 
 H-H1-0.039100        -1    16.415    7.523     26.      L 
 H-H1-0.039100        -1    16.485    6.995     27.543   L 
 N-N--0.347900        -1    11.902    9.844     26.202   L 
 C-CT--0.240000       -1    10.885    10.059    25.186   L 
 C-C-0.734100         -1    10.147    11.369    25.379   L 
 O-O--0.589400        -1    9.928     11.828    26.491   L 
 C-CT--0.009400       -1    9.886     8.901     25.183   L 
 C-CT-0.018700        -1    9.295     8.6       26.549   L 
 C-CT--0.047900       -1    7.824     8.224     26.465   L 
 C-CT--0.014300       -1    7.643     6.721     26.282   L 
 N-N3--0.385400       -1    7.898     5.974     27.55    L 
 H-H-0.274700         -1    11.866    10.248    27.149   L 
 H-H1-0.142600        -1    11.331    10.068    24.275   L 
 H-HC-0.036200        -1    9.141     9.134     24.562   L 
 H-HC-0.036200        -1    10.357    8.085     24.856   L 
 H-HC-0.010300        -1    9.799     7.838     26.963   L 
 H-HC-0.010300        -1    9.389     9.41      27.133   L 
 H-HC-0.062100        -1    7.373     8.496     27.308   L 
 H-HC-0.062100        -1    7.415     8.688     25.687   L 
 H-HP-0.113500        -1    6.705     6.542     25.979   L 
 H-HP-0.113500        -1    8.281     6.4       25.579   L 
 H-H-0.340000         -1    7.495     5.063     27.481   L 
 H-H-0.340000         -1    8.883     5.897     27.694   L 
 H-H-0.340000         -1    7.484     6.469     28.312   L 
 N-N--0.347900        -1    9.639     11.904    24.285   L 
 C-CT--0.263700       -1    8.839     13.109    24.334   L 
 C-C-0.734100         -1    7.713     13.058    23.302   L 
 O-O--0.589400        -1    7.821     12.379    22.279   L 
 C-CT--0.000700       -1    9.677     14.331    24.006   L 
 C-CT-0.039000        -1    10.566    14.8      25.113   L 
 C-CT-0.048600        -1    11.106    16.179    24.794   L 
 N-N2--0.529500       -1    11.928    16.181    23.567   L 
 C-CA-0.807600        -1    12.5      17.264    23.062   L 
 N-N2--0.862700       -1    12.356    18.432    23.686   L 
 N-N2--0.862700       -1    13.227    17.192    21.934   L 
 H-H-0.274700         -1    9.859     11.395    23.405   L 
 H-H1-0.156000        -1    8.426     13.196    25.249   L 
 H-HC-0.032700        -1    10.249    14.111    23.212   L 
 H-HC-0.032700        -1    9.054     15.078    23.762   L 
 H-HC-0.028500        -1    10.054    14.859    25.962   L 
 H-HC-0.028500        -1    11.339    14.184    25.215   L 
 H-H1-0.068700        -1    10.337    16.798    24.666   L 
 H-H1-0.068700        -1    11.669    16.482    25.558   L 
 H-H-0.345600         -1    12.055    15.306    23.094   L 
 H-H-0.447800         -1    11.846    18.51     24.534   L 
 H-H-0.447800         -1    12.778    19.258    23.286   L 
 H-H-0.447800         -1    13.341    16.297    21.497   L 
 H-H-0.447800         -1    13.636    18.006    21.552   L 
 N-N--0.415700        -1    6.632     13.775    23.578   L 
 C-CT--0.003100       -1    5.743     14.219    22.514   L 
 C-C-0.597300         -1    6.176     15.608    22.064   L 
 O-O--0.567900        -1    6.21      16.547    22.85    L 
 C-CT--0.003600       -1    4.275     14.166    22.953   L 
 C-CT--0.064500       -1    3.285     14.316    21.788   L 
 C-C-0.695100         -1    2.134     13.301    21.788   L 
 O-O--0.608600        -1    2.043     12.51     20.714   L 
 N-N--0.940700        -1    1.29      13.287    22.696   L 
 H-H-0.271900         -1    6.482     13.983    24.578   L 
 H-H1-0.085000        -1    5.85      13.599    21.739   L 
 H-HC-0.017100        -1    4.1       13.288    23.392   L 
 H-HC-0.017100        -1    4.103     14.908    23.598   L 
 H-HC-0.035200        -1    2.889     15.239    21.824   L 
 H-HC-0.035200        -1    3.792     14.217    20.925   L 
 H-H-0.425100         -1    0.497     12.651    22.748   L 
 H-H-0.425100         -1    1.373     13.976    23.493   L 
 N-N--0.415700        -1    6.497     15.751    20.783   L 
 C-CT--0.038900       -1    6.833     17.065    20.25    L 
 C-C-0.597300         -1    6.054     17.367    18.996   L 
 O-O--0.567900        -1    5.504     16.493    18.355   L 
 C-CT-0.365400        -1    8.337     17.235    19.904   L 
 O-OH--0.676100       -1    8.638     16.55     18.677   L 
 C-CT--0.243800       -1    9.239     16.745    21.026   L 
 H-H-0.271900         -1    6.487     14.886    20.224   L 
 H-H1-0.100700        -1    6.603     17.758    20.949   L 
 H-H1-0.004300        -1    8.529     18.228    19.771   L 
 H-HO-0.410200        -1    7.774     16.122    18.344   L 
 H-HC-0.064200        -1    8.687     16.52     21.833   L 
 H-HC-0.064200        -1    9.736     15.926    20.73    L 
 H-HC-0.064200        -1    9.899     17.46     21.269   L 
 N-N--0.415700        -1    5.944     18.634    18.667   L 
 C-CT-0.014300        -1    5.121     18.995    17.52    L 
 C-C-0.597300         -1    5.657     18.409    16.227   L 
 O-O--0.567900        -1    4.893     18.018    15.348   L 
 C-CT--0.204100       -1    4.962     20.504    17.417   L 
 C-C-0.713000         -1    3.876     21.01     18.329   L 
 O-O--0.593100        -1    2.934     20.285    18.611   L 
 N-N--0.919100        -1    4.038     22.21     18.858   L 
 H-H-0.271900         -1    6.452     19.304    19.247   L 
 H-H1-0.104800        -1    4.206     18.592    17.672   L 
 H-HC-0.079700        -1    5.822     20.931    17.674   L 
 H-HC-0.079700        -1    4.726     20.733    16.479   L 
 H-H-0.419600         -1    4.863     22.741    18.635   L 
 H-H-0.419600         -1    3.352     22.591    19.473   L 
 N-N--0.415700        -1    6.976     18.41     16.06    L 
 C-CT--0.003100       -1    7.611     17.734    14.942   L 
 C-C-0.597300         -1    7.316     16.228    14.882   L 
 O-O--0.567900        -1    7.04      15.695    13.823   L 
 C-CT--0.003600       -1    9.13      17.938    15.002   L 
 C-CT--0.064500       -1    9.595     19.364    14.761   L 
 C-C-0.695100         -1    11.045    19.441    14.303   L 
 O-O--0.608600        -1    11.763    18.441    14.308   L 
 N-N--0.940700        -1    11.496    20.642    13.988   L 
 H-H-0.271900         -1    7.504     18.931    16.791   L 
 H-H1-0.085000        -1    7.257     18.145    14.082   L 
 H-HC-0.017100        -1    9.455     17.652    15.91    L 
 H-HC-0.017100        -1    9.559     17.348    14.309   L 
 H-HC-0.035200        -1    9.019     19.776    14.056   L 
 H-HC-0.035200        -1    9.504     19.881    15.612   L 
 H-H-0.425100         -1    12.461    20.776    13.686   L 
 H-H-0.425100         -1    10.866    21.441    14.049   L 
 N-N--0.415700        -1    7.407     15.534    16.007   L 
 C-CT--0.051800       -1    7.114     14.113    16.048   L 
 C-C-0.597300         -1    5.647     13.834    15.752   L 
 O-O--0.567900        -1    5.327     12.912    15.037   L 
 C-CT--0.110200       -1    7.529     13.539    17.407   L 
 C-CT-0.353100        -1    9.049     13.332    17.494   L 
 C-CT--0.412100       -1    9.577     13.162    18.917   L 
 C-CT--0.412100       -1    9.469     12.152    16.622   L 
 H-H-0.271900         -1    7.7       16.085    16.838   L 
 H-H1-0.092200        -1    7.673     13.647    15.347   L 
 H-HC-0.045700        -1    7.279     14.181    18.099   L 
 H-HC-0.045700        -1    7.106     12.667    17.513   L 
 H-HC--0.036100       -1    9.508     14.127    17.064   L 
 H-HC-0.100000        -1    9.147     12.364    19.337   L 
 H-HC-0.100000        -1    10.568    13.033    18.89    L 
 H-HC-0.100000        -1    9.36      13.979    19.451   L 
 H-HC-0.100000        -1    9.216     12.334    15.672   L 
 H-HC-0.100000        -1    10.459    12.027    16.686   L 
 H-HC-0.100000        -1    9.006     11.324    16.938   L 
 N-N--0.415700        -1    4.752     14.669    16.26    L 
 C-CT--0.003100       -1    3.32      14.521    15.955   L 
 C-C-0.597300         -1    3.066     14.664    14.455   L 
 O-O--0.567900        -1    2.331     13.882    13.851   L 
 C-CT--0.003600       -1    2.462     15.536    16.741   L 
 C-CT--0.064500       -1    2.698     15.51     18.259   L 
 C-C-0.695100         -1    1.675     16.306    19.09    L 
 O-O--0.608600        -1    0.506     16.579    18.514   L 
 N-N--0.940700        -1    1.94      16.66     20.243   L 
 H-H-0.271900         -1    5.129     15.411    16.87    L 
 H-H1-0.085000        -1    3.043     13.595    16.228   L 
 H-HC-0.017100        -1    2.674     16.455    16.412   L 
 H-HC-0.017100        -1    1.497     15.334    16.576   L 
 H-HC-0.035200        -1    2.675     14.554    18.569   L 
 H-HC-0.035200        -1    3.612     15.885    18.446   L 
 H-H-0.425100         -1    1.315     17.201    20.845   L 
 H-H-0.425100         -1    2.869     16.403    20.671   L 
 N-N--0.415700        -1    3.695     15.657    13.845   L 
 C-CT--0.001400       -1    3.579     15.884    12.418   L 
 C-C-0.597300         -1    4.14      14.675    11.648   L 
 O-O--0.567900        -1    3.662     14.307    10.579   L 
 C-CT--0.015200       -1    4.391     17.159    12.105   L 
 C-CA--0.001100       -1    4.418     17.578    10.673   L 
 C-CA--0.190600       -1    3.425     18.404    10.168   L 
 C-CA--0.190600       -1    5.463     17.195    9.826    L 
 C-CA--0.234100       -1    3.47      18.856    8.872    L 
 C-CA--0.234100       -1    5.461     17.57     8.488    L 
 C-C-0.322600         -1    4.485     18.434    8.028    L 
 O-OH--0.557900       -1    4.436     18.811    6.703    L 
 H-H-0.271900         -1    4.275     16.255    14.476   L 
 H-H1-0.087600        -1    2.609     15.971    12.181   L 
 H-HC-0.029500        -1    4.001     17.906    12.654   L 
 H-HC-0.029500        -1    5.335     16.997    12.412   L 
 H-HA-0.169900        -1    2.661     18.674    10.762   L 
 H-HA-0.169900        -1    6.212     16.651    10.186   L 
 H-HA-0.165600        -1    2.771     19.493    8.53     L 
 H-HA-0.165600        -1    6.158     17.218    7.866    L 
 H-HO-0.399200        -1    5.243     18.398    6.233    L 
 N-N--0.415700        -1    5.277     14.174    12.088   L 
 C-CT--0.051800       -1    5.894     13.033    11.452   L 
 C-C-0.597300         -1    4.954     11.836    11.392   L 
 O-O--0.567900        -1    4.973     11.087    10.412   L 
 C-CT--0.110200       -1    7.198     12.662    12.163   L 
 C-CT-0.353100        -1    8.493     13.245    11.572   L 
 C-CT--0.412100       -1    9.608     13.115    12.588   L 
 C-CT--0.412100       -1    8.895     12.533    10.294   L 
 H-H-0.271900         -1    5.681     14.662    12.914   L 
 H-H1-0.092200        -1    6.146     13.283    10.504   L 
 H-HC-0.045700        -1    7.136     12.982    13.105   L 
 H-HC-0.045700        -1    7.287     11.67     12.144   L 
 H-HC--0.036100       -1    8.342     14.204    11.357   L 
 H-HC-0.100000        -1    9.749     12.149    12.813   L 
 H-HC-0.100000        -1    10.455    13.493    12.21    L 
 H-HC-0.100000        -1    9.367     13.616    13.421   L 
 H-HC-0.100000        -1    8.168     12.628    9.612    L 
 H-HC-0.100000        -1    9.739     12.935    9.936    L 
 H-HC-0.100000        -1    9.046     11.561    10.483   L 
 N-N--0.415700        -1    4.135     11.629    12.421   L 
 C-CT--0.051800       -1    3.141     10.567    12.36    L 
 C-C-0.597300         -1    1.909     10.963    11.55    L 
 O-O--0.567900        -1    1.476     10.221    10.651   L 
 C-CT--0.110200       -1    2.697     10.158    13.756   L 
 C-CT-0.353100        -1    1.495     9.196     13.779   L 
 C-CT--0.412100       -1    1.808     7.947     12.955   L 
 C-CT--0.412100       -1    1.132     8.819     15.218   L 
 H-H-0.271900         -1    4.263     12.258    13.223   L 
 H-H1-0.092200        -1    3.561     9.757     11.92    L 
 H-HC-0.045700        -1    3.449     9.694     14.199   L 
 H-HC-0.045700        -1    2.43      10.97     14.249   L 
 H-HC--0.036100       -1    0.704     9.66      13.391   L 
 H-HC-0.100000        -1    2.606     7.487     13.342   L 
 H-HC-0.100000        -1    1.022     7.331     12.977   L 
 H-HC-0.100000        -1    1.999     8.213     12.011   L 
 H-HC-0.100000        -1    0.896     9.646     15.726   L 
 H-HC-0.100000        -1    0.351     8.196     15.209   L 
 H-HC-0.100000        -1    1.914     8.372     15.649   L 
 N-N--0.347900        -1    1.323     12.114    11.888   L 
 C-CT--0.263700       -1    0.029     12.531    11.35    L 
 C-C-0.734100         -1    0.066     12.862    9.878    L 
 O-O--0.589400        -1   -0.91      12.615    9.155    L 
 C-CT--0.000700       -1   -0.5       13.769    12.061   L 
 C-CT-0.039000        -1   -1.797     14.274    11.439   L 
 C-CT-0.048600        -1   -2.43      15.393    12.252   L 
 N-N2--0.529500       -1   -1.652     16.621    12.13    L 
 C-CA-0.807600        -1   -1.725     17.461    11.102   L 
 N-N2--0.862700       -1   -2.57      17.229    10.091   L 
 N-N2--0.862700       -1   -0.97      18.555    11.095   L 
 H-H-0.274700         -1    1.868     12.689    12.569   L 
 H-H1-0.156000        -1   -0.638     11.775    11.501   L 
 H-HC-0.032700        -1   -0.683     13.538    13.003   L 
 H-HC-0.032700        -1    0.173     14.487    11.988   L 
[...]
 H,10.989,2.875,-9.584\H,12.887,0.766,-9.858\H,11.325,2.109,-11.881\H,1
 2.429,0.946,-12.191\H,11.062,0.578,-11.376\H,14.072,2.715,-9.516\H,14.
 254,2.227,-11.065\H,13.243,3.46,-10.71\N,10.561,1.945,-6.161\C,9.574,2
 .214,-5.117\C,10.217,3.005,-3.981\O,9.707,4.041,-3.575\C,9.038,0.915,-
 4.567\C,8.269,0.139,-5.602\S,8.06,-1.594,-5.185\C,6.406,-1.508,-4.484\
 H,10.891,0.995,-6.407\H,8.845,2.776,-5.512\H,9.802,0.35,-4.244\H,8.429
 ,1.108,-3.793\H,7.352,0.593,-5.739\H,8.747,0.239,-6.511\H,5.825,-2.196
 ,-4.918\H,6.453,-1.682,-3.5\H,6.024,-0.598,-4.645\N,11.37,2.548,-3.518
 \C,12.064,3.251,-2.446\C,12.395,4.697,-2.851\O,12.21,5.633,-2.073\C,13
 .327,2.499,-2.041\H,11.72,1.687,-3.963\H,11.469,3.28,-1.634\H,13.681,1
 .994,-2.828\H,14.016,3.151,-1.726\H,13.112,1.859,-1.304\N,12.892,4.872
 ,-4.066\C,13.303,6.201,-4.516\C,12.124,7.191,-4.557\O,12.251,8.364,-4.
 158\C,13.983,6.092,-5.889\C,15.424,5.596,-5.799\C,15.96,5.022,-7.104\O
 ,15.251,5.065,-8.134\O,17.135,4.587,-7.114\H,12.962,4.023,-4.646\H,14.
 016,6.564,-3.899\H,13.479,5.444,-6.421\H,14.,6.985,-6.285\H,15.997,6.3
 6,-5.554\H,15.462,4.879,-5.123\N,10.964,6.697,-4.956\C,9.762,7.52,-4.9
 84\C,9.319,7.89,-3.586\O,8.992,9.045,-3.309\C,8.636,6.793,-5.7\H,10.98
 2,5.7,-5.24\H,9.963,8.367,-5.497\H,8.749,6.891,-6.689\H,8.657,5.823,-5
 .459\H,7.757,7.184,-5.426\N,9.349,6.925,-2.672\C,8.988,7.189,-1.271\C,
 9.974,8.152,-0.652\O,9.57,9.057,0.056\C,8.909,5.895,-0.436\C,7.693,4.9
 59,-0.663\C,7.75,3.797,0.32\C,6.356,5.673,-0.562\H,9.64,5.996,-3.019\H
 ,8.074,7.603,-1.256\H,9.73,5.356,-0.63\H,8.9,6.154,0.529\H,7.73,4.614,
 -1.594\H,7.727,4.15,1.256\H,6.965,3.195,0.171\H,8.596,3.282,0.179\H,6.
 309,6.398,-1.251\H,5.614,5.019,-0.717\H,6.258,6.076,0.349\N,11.263,7.9
 73,-0.928\C,12.273,8.826,-0.306\C,12.133,10.279,-0.795\O,12.218,11.245
 ,-0.01\C,13.682,8.314,-0.594\C,14.716,8.964,0.316\C,16.154,8.669,-0.05
 5\O,16.408,7.745,-0.84\O,17.054,9.322,0.516\H,11.475,7.215,-1.588\H,12
 .171,8.804,0.693\H,13.695,7.355,-0.419\H,13.907,8.549,-1.513\H,14.591,
 9.945,0.271\H,14.57,8.629,1.236\N,11.866,10.437,-2.086\C,11.681,11.767
 ,-2.636\C,10.533,12.476,-1.914\O,10.61,13.64,-1.553\C,11.367,11.638,-4
 .141\C,10.75,12.879,-4.766\C,9.835,12.564,-5.947\C,8.974,13.767,-6.308
 \N,9.169,14.167,-7.732\H,11.805,9.568,-2.635\H,12.52,12.301,-2.501\H,1
 2.222,11.436,-4.616\H,10.732,10.875,-4.256\H,10.214,13.366,-4.067\H,11
 .486,13.487,-5.084\H,10.395,12.327,-6.731\H,9.24,11.81,-5.699\H,8.012,
 13.534,-6.161\H,9.222,14.534,-5.715\H,9.044,13.368,-8.319\H,8.5,14.869
 ,-7.972\H,10.093,14.529,-7.849\N,9.415,11.778,-1.794\C,8.235,12.3,-1.1
 39\C,8.519,12.624,0.33\O,8.135,13.676,0.818\C,7.166,11.225,-1.212\C,5.
 717,11.578,-0.945\C,5.404,13.051,-1.227\C,4.855,10.667,-1.81\H,9.46,10
 .818,-2.213\H,7.955,13.152,-1.598\H,7.207,10.817,-2.142\H,7.422,10.495
 ,-0.555\H,5.498,11.38,0.02\H,5.597,13.251,-2.186\H,4.44,13.225,-1.035\
 H,5.973,13.626,-0.642\H,5.032,9.712,-1.569\H,3.889,10.876,-1.656\H,5.0
 78,10.814,-2.774\N,9.17,11.705,1.032\C,9.588,11.908,2.411\C,10.358,13.
 229,2.568\O,10.037,14.067,3.437\C,10.434,10.691,2.84\C,11.102,10.832,4
 .201\C,10.362,10.807,5.372\C,12.487,10.905,4.301\C,10.995,10.947,6.615
 \C,13.107,11.047,5.523\C,12.366,11.055,6.685\H,9.358,10.817,0.506\H,8.
 754,11.998,2.966\H,9.835,9.906,2.879\H,11.147,10.567,2.167\H,9.377,10.
 689,5.343\H,13.041,10.852,3.464\H,10.429,10.968,7.449\H,14.121,11.148,
 5.562\H,12.817,11.138,7.573\N,11.38,13.407,1.747\C,12.194,14.595,1.85\
 C,11.37,15.861,1.637\O,11.594,16.877,2.283\C,13.285,14.54,0.792\C,14.4
 21,13.582,1.131\C,15.317,13.419,-0.091\C,15.194,14.116,2.322\H,11.533,
 12.654,1.06\H,12.599,14.636,2.775\H,12.879,14.232,-0.054\H,13.673,15.4
 43,0.702\H,14.041,12.699,1.381\H,15.693,14.309,-0.35\H,16.065,12.791,0
 .125\H,14.781,13.05,-0.85\H,14.583,14.199,3.111\H,15.941,13.489,2.547\
 H,15.573,15.016,2.101\N,10.476,15.832,0.669\C,9.569,16.938,0.43\C,8.76
 5,17.281,1.692\O,8.615,18.437,2.052\C,8.602,16.448,-0.639\C,7.871,17.4
 93,-1.45\C,7.154,16.847,-2.632\O,5.931,16.7,-2.619\N,7.933,16.313,-3.5
 79\H,10.477,14.959,0.098\H,10.115,17.751,0.192\H,9.115,15.853,-1.287\H
 ,7.903,15.855,-0.192\H,7.194,17.936,-0.878\H,8.524,18.15,-1.801\H,7.52
 5,15.856,-4.384\H,8.942,16.377,-3.472\N,8.172,16.261,2.294\C,7.362,16.
 456,3.486\C,8.188,16.991,4.642\O,7.705,17.818,5.417\C,6.67,15.166,3.89
 6\C,5.83,14.547,2.799\C,4.52,15.282,2.608\C,3.55,14.398,1.841\N,3.137,
 14.997,0.54\H,8.332,15.336,1.853\H,6.628,17.12,3.277\H,7.369,14.506,4.
 167\H,6.076,15.362,4.675\H,6.345,14.572,1.938\H,5.635,13.591,3.034\H,4
 .13,15.485,3.492\H,4.681,16.103,2.084\H,3.987,13.508,1.668\H,2.731,14.
 245,2.406\H,3.579,14.502,-0.207\H,2.144,14.931,0.446\H,3.413,15.957,0.
 516\N,9.42,16.532,4.777\C,10.184,16.912,5.961\C,10.973,18.172,5.732\O,
 11.56,18.686,6.665\C,11.132,15.808,6.48\C,12.277,15.544,5.509\C,10.385
 ,14.524,6.765\C,13.433,14.836,6.196\H,9.767,15.93,4.032\H,9.503,17.115
 ,6.678\H,11.522,16.124,7.344\H,11.946,14.977,4.771\H,12.6,16.41,5.158\
 H,11.007,13.853,7.17\H,9.635,14.703,7.402\H,10.012,14.154,5.914\H,13.1
 14,13.963,6.559\H,14.162,14.68,5.533\H,13.771,15.407,6.941\N,10.971,18
 .709,4.525\C,11.76,19.907,4.297\C,11.307,21.03,5.22\O,12.086,21.939,5.
 516\C,11.668,20.344,2.822\C,12.575,21.522,2.514\O,12.104,22.602,2.158\
 N,13.873,21.367,2.815\H,10.406,18.24,3.819\H,12.711,19.691,4.542\H,11.
 937,19.576,2.254\H,10.728,20.606,2.635\H,14.185,20.506,3.213\H,14.515,
 22.107,2.64\N,10.011,21.065,5.521\C,9.474,22.03,6.454\C,8.735,21.303,7
 .586\O,7.772,20.598,7.345\C,8.554,23.007,5.721\C,8.226,24.227,6.563\C,
 7.411,25.262,5.829\O,6.924,24.974,4.704\O,7.215,26.342,6.42\H,9.435,20
 .349,5.033\H,10.213,22.582,6.847\H,9.021,23.314,4.92\H,7.717,22.543,5.
 528\H,7.701,23.929,7.344\H,9.074,24.651,6.836\N,9.193,21.469,8.821\C,8
 .501,20.909,9.978\C,7.929,21.987,10.919\O,8.218,23.202,10.793\C,9.439,
 19.979,10.76\C,10.335,19.001,9.986\C,11.479,18.48,10.849\C,9.558,17.82
 7,9.446\H,10.07,22.021,8.892\H,7.728,20.341,9.65\H,10.048,20.559,11.31
 6\H,8.871,19.429,11.384\H,10.712,19.473,9.185\H,11.105,18.003,11.644\H
 ,12.039,17.848,10.313\H,12.042,19.248,11.155\H,8.842,18.149,8.822\H,10
 .173,17.211,8.948\H,9.131,17.323,10.201\N,7.121,21.554,11.902\C,6.767,
 22.5,12.949\C,7.994,22.92,13.76\O,8.978,22.179,13.847\C,5.755,21.718,1
 3.813\C,5.27,20.616,12.944\C,6.417,20.27,12.053\H,6.305,23.311,12.564\
 H,6.207,21.362,14.638\H,5.002,22.321,14.095\H,4.992,19.822,13.5\H,4.47
 1,20.915,12.405\H,7.019,19.589,12.471\H,6.107,19.934,11.161\N,7.931,24
 .123,14.316\C,8.888,24.59,15.336\C,9.379,23.475,16.259\O,8.557,22.729,
 16.828\C,8.262,25.698,16.215\O,7.493,26.597,15.396\C,9.343,26.477,16.9
 39\H,7.144,24.72,13.972\H,9.691,24.983,14.856\H,7.631,25.264,16.888\H,
 7.56,26.268,14.434\H,9.023,27.408,17.133\H,9.571,26.023,17.804\H,10.16
 8,26.528,16.37\N,10.708,23.302,16.271\C,11.395,22.249,17.013\C,11.293,
 22.483,18.533\O,11.123,23.62,19.003\C,12.873,22.198,16.583\C,13.522,20
 .821,16.683\C,15.021,20.818,16.361\O,15.464,21.471,15.385\O,15.76,20.0
 95,17.054\H,11.225,24.01,15.683\H,10.991,21.355,16.791\H,12.917,22.481
 ,15.64\H,13.375,22.808,17.172\H,13.422,20.498,17.608\H,13.084,20.222,1
 6.035\N,11.406,21.404,19.302\C,11.376,21.494,20.771\C,12.517,20.712,21
 .41\O,13.019,19.722,20.872\C,10.039,20.988,21.339\C,8.809,21.69,20.776
 \C,7.573,20.831,20.884\O,7.1,20.588,22.008\O,7.111,20.341,19.839\O,12.
 894,21.031,22.535\H,11.515,20.509,18.791\H,11.435,22.464,21.046\H,9.96
 5,20.032,21.116\H,10.052,21.141,22.311\H,8.657,22.504,21.299\H,8.968,2
 1.871,19.827\C,8.78712605,-5.67181246,-3.68232477\H,8.48469214,-5.3755
 8982,-2.68420682\C,8.02118161,-5.25323747,-4.75213446\H,7.13845162,-4.
 64419008,-4.61176046\C,8.44462004,-5.55483588,-6.04092452\Cl,7.4286782
 7,-4.93899535,-7.28388976\C,9.61894077,-6.28474016,-6.29355661\H,9.909
 74602,-6.4980374,-7.31844439\C,10.36779801,-6.71897127,-5.18697911\H,1
 1.27967849,-7.28916989,-5.3332722\C,9.93521924,-6.44438565,-3.865257\C
 ,10.67374661,-6.89396104,-2.65597682\N,11.93839308,-7.10573439,-2.8188
 314\C,9.88197332,-7.05177079,-1.38150423\C,8.55489389,-7.53950759,-1.4
 3935742\H,8.20158504,-7.97522983,-2.35972802\C,7.67555755,-7.44641989,
 -0.35720985\H,6.68491288,-7.85704386,-0.4477588\C,8.10249276,-6.862476
 1,0.8488857\H,7.43442267,-6.81058664,1.69494738\C,9.41628919,-6.389993
 88,0.92512084\H,9.7570596,-5.91682003,1.83481542\C,10.31341212,-6.4471
 5487,-0.16045151\C,11.67260044,-5.89335108,-0.0654392\C,12.22820216,-4
 .76146563,0.59646636\C,11.61013772,-3.65960669,1.41069468\H,11.3202539
 1,-4.00892462,2.40056456\H,10.73902675,-3.2320498,0.92635058\H,12.3786
 0637,-2.89942916,1.54715377\N,13.52422726,-4.6855707,0.3836281\O,13.86
 11472,-5.72230512,-0.4873174\C,12.73398188,-6.40115902,-0.75127854\C,1
 2.71830206,-7.55126222,-1.70467373\H,12.19550997,-8.36937296,-1.191161
 4\C,14.07714991,-8.04972951,-2.13459939\H,14.60014991,-8.48192341,-1.2
 8426232\H,14.70772523,-7.24752123,-2.52643496\C,13.92476145,-9.1099763
 8,-3.23703445\O,12.9135778,-9.76520932,-3.42102868\N,15.07723922,-9.29
 818344,-3.94266426\H,14.97842808,-9.77803812,-4.82222634\H,15.73556176
 ,-8.53103234,-3.95757613\O,6.037,26.426,3.352\H,6.445,25.758,3.974\H,5
 .597,25.988,2.568\O,6.368,19.608,5.894\H,6.992,20.048,6.539\H,6.745,18
 .757,5.529\O,0.288,-2.527,5.396\H,0.733,-2.062,4.631\H,-0.633,-2.837,5
 .161\O,7.586,25.489,10.994\H,7.851,24.529,10.91\H,7.883,26.031,10.207\
 O,18.962,4.136,-5.627\H,18.2,4.324,-6.247\H,19.77,4.681,-5.85\O,16.036
 ,2.064,15.978\H,16.709,2.781,16.158\H,16.372,1.234,16.423\O,3.351,18.2
 42,21.457\H,3.233,18.821,20.65\H,3.565,18.777,22.275\O,11.61,-2.357,-1
 3.959\H,11.195,-2.311,-13.05\H,12.553,-2.688,-13.925\O,12.003,-19.81,2
 .458\H,11.487,-18.987,2.695\H,12.258,-20.339,3.268\O,15.458,-2.624,24.
 629\H,14.915,-2.214,23.896\H,15.575,-3.609,24.503\O,7.053,-8.971,8.41\
 H,7.687,-8.402,7.886\H,7.518,-9.733,8.861\O,15.358,-16.143,14.467\H,15
 .29,-16.9,13.817\H,14.78,-15.37,14.205\O,1.736,-4.164,3.723\H,2.402,-4
 .457,4.409\H,1.614,-3.172,3.72\O,21.555,-2.349,7.779\H,20.801,-1.907,7
 .293\H,22.313,-2.577,7.168\O,9.25,-3.769,14.8\H,9.264,-3.151,14.014\H,
 9.928,-3.514,15.489\O,17.423,-7.328,-6.474\H,17.402,-6.407,-6.862\H,17
 .94,-7.965,-7.046\O,14.9,-3.919,22.014\H,14.589,-3.018,22.317\H,15.053
 ,-3.95,21.026\O,5.222,-3.681,18.719\H,5.764,-2.919,19.072\H,5.102,-4.4
 03,19.4\O,14.804,-7.03,13.419\H,14.467,-7.682,14.098\H,14.181,-6.943,1
 2.641\O,22.785,-14.685,-2.041\H,22.217,-14.043,-1.526\H,23.274,-14.236
 ,-2.789\O,16.348,-20.391,12.937\H,15.899,-19.499,12.887\H,17.154,-20.3
 73,13.528\O,17.061,-1.782,13.858\H,16.587,-1.886,12.983\H,17.699,-1.01
 2,13.85\O,14.159,-1.306,3.28\H,14.6,-0.427,3.462\H,14.826,-2.04,3.152\
 O,21.866,-1.93,-11.38\H,20.927,-1.607,-11.262\H,22.093,-2.08,-12.342\O
 ,16.528,6.33,15.411\H,15.961,7.025,14.968\H,16.997,5.749,14.746\O,-0.3
 88,6.283,-4.295\H,-0.676,5.996,-3.381\H,-0.895,7.084,-4.614\O,8.514,26
 .942,8.639\H,8.022,26.715,7.799\H,8.424,27.909,8.877\O,7.968,25.152,2.
 281\H,7.573,25.085,3.197\H,7.271,25.315,1.583\O,13.858,17.864,3.242\H,
 13.003,17.491,2.88\H,14.626,17.712,2.62\O,15.477,-3.495,2.238\H,15.626
 ,-4.089,3.029\H,16.323,-3.058,1.933\O,10.463,-13.349,-3.318\H,10.856,-
 13.79,-2.511\H,10.83,-13.728,-4.168\O,9.976,-21.677,0.739\H,9.293,-21.
 613,1.466\H,9.53,-22.121,-0.038\O,12.228,-4.79,-11.271\H,11.692,-3.958
 ,-11.416\H,12.123,-5.44,-12.023\O,11.056,-10.679,9.639\H,11.266,-10.31
 8,8.73\H,11.239,-10.01,10.36\O,15.21,20.038,23.502\H,14.352,20.406,23.
 144\H,15.93,20.731,23.537\O,19.789,6.4,9.263\H,18.822,6.367,9.515\H,20
 .122,7.339,9.176\O,15.077,-6.588,-5.704\H,15.564,-6.371,-4.858\H,14.64
 4,-7.489,-5.667\O,-0.494,-0.334,-3.402\H,0.401,0.075,-3.581\H,-0.55,-1
 .275,-3.734\O,1.67,-13.233,3.892\H,1.099,-12.711,4.525\H,1.888,-14.097
 ,4.345\O,8.644,19.919,17.638\H,8.079,20.074,18.449\H,8.878,20.774,17.1
 74\O,15.145,18.499,19.705\H,14.362,18.949,20.135\H,15.408,18.941,18.84
 7\O,4.611,23.586,5.039\H,5.462,24.097,4.916\H,4.772,22.602,5.112\O,16.
 375,10.706,2.888\H,16.567,10.156,3.7\H,16.575,10.21,2.043\O,27.322,-10
 .686,7.257\H,26.376,-10.446,7.038\H,27.87,-9.881,7.483\O,13.89,23.208,
 7.128\H,13.23,22.743,6.538\H,14.269,24.026,6.696\O,12.243,-4.328,10.20
 8\H,11.432,-3.752,10.311\H,12.842,-4.004,9.476\O,10.126,-3.423,5.012\H
 ,9.441,-3.81,5.629\H,10.197,-3.941,4.159\O,10.902,-16.909,11.782\H,11.
 615,-16.294,12.117\H,10.405,-17.35,12.53\O,12.482,-2.054,5.184\H,12.69
 6,-1.724,6.103\H,13.134,-1.72,4.504\O,11.74,-9.214,12.043\H,12.16,-9.9
 34,12.595\H,12.221,-9.075,11.177\O,-1.459,2.08,1.046\H,-0.805,2.586,1.
 608\H,-1.026,1.673,0.242\O,18.432,7.624,-2.736\H,17.703,7.668,-2.053\H
 ,18.682,8.531,-3.076\O,5.693,10.323,18.958\H,5.156,9.486,18.854\H,6.67
 2,10.159,18.834\O,17.265,2.917,-9.571\H,16.712,3.388,-10.258\H,18.133,
 3.41,-9.511\O,17.813,-13.855,6.309\H,18.372,-14.441,5.722\H,16.835,-13
 .982,6.144\O,11.274,-22.083,8.072\H,11.83,-21.39,8.53\H,10.437,-22.287
 ,8.579\O,11.587,16.936,17.528\H,10.649,16.919,17.873\H,11.605,17.59,16
 .772\O,21.865,-6.533,-4.884\H,21.256,-6.49,-4.092\H,22.821,-6.384,-4.6
 31\O,18.935,10.593,9.435\H,19.883,10.907,9.475\H,18.371,11.328,9.811\O
 ,7.415,20.222,3.959\H,7.518,19.371,4.475\H,6.553,20.685,4.166\O,7.875,
 -8.878,4.168\H,7.457,-8.104,4.643\H,7.158,-9.564,4.046\O,5.11,-1.904,2
 2.021\H,5.643,-1.838,21.177\H,5.674,-1.754,22.833\O,4.401,21.261,5.276
 \H,4.413,20.397,5.779\H,3.471,21.606,5.146\O,-2.346,12.808,4.968\H,-3.
 242,12.899,5.403\H,-1.876,13.687,4.89\O,8.395,-6.273,4.017\H,8.371,-5.
 377,3.574\H,8.747,-6.983,3.407\O,12.72,25.267,1.383\H,12.503,24.33,1.6
 56\H,11.896,25.812,1.226\O,8.099,10.612,-5.524\H,8.412,10.063,-4.749\H
 ,7.177,10.357,-5.816\O,7.413,28.035,4.126\H,7.344,27.443,4.929\H,7.287
 ,28.999,4.359\O,18.076,3.688,12.686\H,18.302,3.703,11.712\H,17.109,3.8
 83,12.85\O,19.262,14.344,17.904\H,19.932,14.105,18.607\H,19.602,15.166
 ,17.448\O,12.061,-3.291,24.462\H,11.544,-2.472,24.214\H,11.587,-3.84,2
 5.151\O,0.827,20.493,12.215\H,1.453,21.168,12.605\H,0.563,20.723,11.27
 8\O,10.945,5.559,24.59\H,11.137,6.026,23.727\H,11.557,5.856,25.322\O,1
 5.041,-0.137,-14.386\H,14.993,-0.586,-13.494\H,14.556,-0.653,-15.092\O
 ,13.741,-17.83,3.483\H,13.415,-16.885,3.473\H,14.684,-17.898,3.808\O,1
 5.298,-3.586,18.739\H,15.851,-2.8,18.463\H,15.606,-4.363,18.19\O,17.06
 7,12.661,5.533\H,16.09,12.774,5.716\H,17.514,13.51,5.814\O,3.559,-12.5
 65,6.273\H,4.508,-12.833,6.439\H,2.95,-12.87,7.005\O,5.415,-3.7,13.014
 \H,5.754,-4.42,13.62\H,5.437,-4.07,12.085\O,11.805,10.268,29.067\H,12.
 411,9.581,29.469\H,12.082,11.153,29.442\O,8.67,3.46,24.648\H,9.253,4.2
 63,24.769\H,7.938,3.53,25.325\O,3.425,23.695,21.282\H,4.064,23.563,22.
 039\H,2.786,24.444,21.457\O,0.224,21.346,18.602\H,1.155,20.981,18.605\
 H,-0.463,20.619,18.598\O,18.545,8.306,2.874\H,17.98,8.615,3.639\H,18.1
 82,8.609,1.993\O,14.58,18.384,13.546\H,13.615,18.404,13.807\H,15.086,1
 9.16,13.922\O,15.094,-3.366,6.72\H,14.453,-2.664,7.032\H,14.999,-4.217
 ,7.237\O,5.127,24.935,14.1\H,5.874,25.46,14.509\H,4.234,25.222,14.446\
 O,0.899,17.161,13.464\H,1.297,16.25,13.572\H,1.378,17.846,14.013\O,16.
 432,9.129,23.459\H,17.26,8.934,22.933\H,16.639,8.914,24.413\O,2.063,-0
 .144,12.856\H,3.056,-0.034,12.811\H,1.603,0.282,12.077\O,20.331,-7.575
 ,-6.528\H,20.084,-7.283,-5.604\H,19.866,-8.445,-6.69\O,0.401,0.489,-0.
 711\H,0.668,1.427,-0.931\H,0.019,0.013,-1.503\O,3.774,20.436,21.465\H,
 3.492,20.385,20.507\H,4.769,20.443,21.563\O,16.506,3.913,19.828\H,16.2
 64,4.695,19.254\H,17.425,4.,20.213\O,18.101,-8.327,-4.24\H,17.532,-7.5
 52,-3.966\H,17.82,-8.705,-5.122\O,1.292,9.495,-0.973\H,1.232,9.216,-0.
 014\H,0.409,9.797,-1.331\O,-0.109,2.649,20.487\H,0.88,2.544,20.591\H,-
 0.617,2.038,21.094\O,8.54,-4.973,18.781\H,9.263,-4.563,18.225\H,7.882,
 -4.292,19.102\O,1.998,18.742,14.781\H,2.951,18.504,14.968\H,1.916,19.6
 23,14.315\O,8.712,-19.447,1.805\H,9.293,-18.765,2.25\H,8.196,-19.99,2.
 467\O,10.924,18.508,18.13\H,10.177,17.868,18.309\H,10.977,18.762,17.16
 4\O,23.743,-3.561,7.759\H,24.238,-3.823,6.931\H,23.298,-2.687,7.565\O,
 1.792,0.552,18.546\H,2.145,1.132,19.281\H,1.326,1.084,17.839\O,21.194,
 4.997,7.119\H,20.959,4.833,6.161\H,20.492,5.531,7.591\O,-3.159,0.376,8
 .006\H,-2.573,-0.014,8.716\H,-4.129,0.218,8.192\O,19.588,-6.619,-10.18
 3\H,18.762,-6.083,-10.01\H,19.973,-6.997,-9.341\O,9.91,19.988,24.86\H,
 10.67,20.254,24.267\H,9.03,20.047,24.39\O,13.051,-4.98,7.876\H,12.819,
 -4.016,7.742\H,13.927,-5.133,7.418\O,8.527,-3.68,21.663\H,8.292,-3.212
 ,22.515\H,9.193,-4.389,21.897\O,12.786,-5.581,-7.412\H,13.556,-5.9,-6.
 859\H,12.011,-6.175,-7.198\O,4.223,-4.144,11.639\H,4.139,-3.552,10.837
 \H,3.659,-4.951,11.463\O,10.335,-2.913,26.25\H,10.412,-2.296,25.467\H,
 10.792,-3.787,26.085\O,-0.002,0.347,14.317\H,0.091,1.091,14.979\H,0.84
 5,0.188,13.81\O,21.673,1.236,6.788\H,20.995,0.509,6.679\H,21.248,2.139
 ,6.844\O,-3.459,5.325,11.151\H,-3.673,4.357,11.283\H,-4.285,5.884,11.0
 72\O,1.979,6.254,24.496\H,2.313,7.141,24.177\H,1.434,6.337,25.33\O,7.6
 11,9.889,19.718\H,8.405,10.136,20.273\H,7.534,10.459,18.9\O,3.422,-8.0
 37,3.286\H,3.427,-7.219,3.861\H,3.251,-7.819,2.325\O,13.117,25.457,15.
 397\H,13.184,26.451,15.316\H,13.823,24.989,14.865\O,5.574,-9.669,5.516
 \H,6.332,-9.143,5.902\H,5.65,-10.644,5.724\O,6.148,9.35,-6.302\H,6.835
 ,9.276,-5.579\H,5.957,8.466,-6.729\O,11.866,23.537,8.795\H,12.548,23.2
 68,8.115\H,12.344,23.609,9.67\O,16.829,-18.388,-2.111\H,16.163,-17.703
 ,-1.815\H,16.697,-18.651,-3.067\O,7.533,22.512,2.34\H,7.357,23.222,3.0
 22\H,6.871,22.539,1.591\O,13.785,7.824,30.318\H,13.497,7.453,29.435\H,
 13.522,7.23,31.078\O,18.798,6.612,1.963\H,19.469,7.243,1.574\H,18.137,
 7.167,2.467\O,17.155,18.238,24.121\H,16.678,18.953,23.61\H,18.112,18.2
 65,23.832\O,13.334,-6.689,11.335\H,13.401,-7.171,10.462\H,12.426,-6.77
 8,11.744\O,4.962,7.367,-7.976\H,4.957,7.756,-8.897\H,4.006,7.26,-7.702
 \O,14.867,-17.29,5.354\H,14.286,-16.677,4.819\H,15.337,-16.81,6.095\O,
 -2.322,11.162,13.648\H,-2.924,10.943,14.416\H,-2.814,11.178,12.778\O,7
 .687,17.275,26.015\H,7.273,17.071,25.128\H,7.017,17.625,26.67\O,8.214,
 25.466,19.954\H,9.028,24.95,19.688\H,8.442,26.261,20.516\O,10.27,-6.92
 7,19.715\H,10.919,-6.806,18.964\H,10.625,-7.538,20.423\O,5.979,15.067,
 26.866\H,6.741,15.628,27.191\H,5.176,15.663,26.83\O,5.207,23.326,23.39
 3\H,5.732,22.567,23.009\H,4.776,23.082,24.262\O,10.17,26.315,3.766\H,9
 .277,25.946,4.024\H,10.892,26.024,4.394\O,11.745,25.614,5.4\H,11.837,2
 4.619,5.431\H,12.62,26.066,5.227\O,6.271,11.86,27.344\H,7.245,11.851,2
 7.117\H,5.873,12.773,27.255\O,4.62,18.878,2.924\H,4.571,18.86,3.923\H,
 5.559,18.79,2.593\O,8.061,-11.132,9.631\H,7.705,-11.725,8.909\H,9.049,
 -11.234,9.746\O,6.415,24.296,21.416\H,6.594,23.325,21.571\H,7.114,24.7
 19,20.84\O,-4.756,4.362,0.928\H,-3.902,4.583,0.457\H,-5.388,3.855,0.34
 2\O,17.271,0.841,14.034\H,16.778,1.701,13.903\H,16.943,0.123,13.42\O,5
 .11,19.253,0.381\H,5.993,19.047,0.802\H,4.583,19.912,0.918\O,-1.772,4.
 354,21.574\H,-0.911,4.811,21.351\H,-2.076,4.56,22.504\O,15.872,5.964,1
 8.322\H,15.551,6.845,18.67\H,16.726,6.052,17.81\O,19.781,0.146,-14.99\
 H,19.687,-0.151,-14.04\H,20.737,0.294,-15.244\O,-1.678,-0.611,9.801\H,
 -2.061,-1.36,10.342\H,-0.789,-0.922,9.466\O,8.729,-9.402,12.684\H,9.70
 5,-9.341,12.476\H,8.276,-10.117,12.152\O,9.026,-18.055,10.117\H,8.209,
 -18.066,10.693\H,9.603,-18.857,10.269\O,15.411,-19.214,16.975\H,14.421
 ,-19.077,16.952\H,15.766,-19.227,17.91\O,11.981,-18.738,16.896\H,11.61
 6,-18.49,17.793\H,11.495,-19.562,16.604\\Version=ES64L-G16RevA.03\HF=-
 0.180511\RMSD=0.000e+00\RMSF=6.556e-04\Dipole=-98.1835195,-64.0938077,
 59.7437344\PG=C01 [X(C706H1379Cl1N177O350S6)]\\@
 Punch of MOs requested, but none found.


 IF GOD HAD MEANT MAN TO SEE THE SUN RISE, HE
 WOULD HAVE SCHEDULED IT FOR A LATER HOUR.
 Job cpu time:       0 days  0 hours 29 minutes  4.3 seconds.
 Elapsed time:       0 days  0 hours  1 minutes 22.4 seconds.
 File lengths (MBytes):  RWF=    336 Int=      0 D2E=      0 Chk=    313 Scr=      1
 Normal termination of Gaussian 16 at Wed Nov  9 10:53:37 2022.
