      -----------------------------------------------------------      
     |                   =====================                   |     
     |                           x T B                           |     
     |                   =====================                   |     
     |                         S. Grimme                         |     
     |          Mulliken Center for Theoretical Chemistry        |     
     |                    University of Bonn                     |     
      -----------------------------------------------------------      

   * xtb version 6.6.0 (2ccbbd7) compiled by 'conda@6fe65c42fc39' on 2023-02-10

   xtb is free software: you can redistribute it and/or modify it under
   the terms of the GNU Lesser General Public License as published by
   the Free Software Foundation, either version 3 of the License, or
   (at your option) any later version.
   
   xtb is distributed in the hope that it will be useful,
   but WITHOUT ANY WARRANTY; without even the implied warranty of
   MERCHANTABILITY or FITNESS FOR A PARTICULAR PURPOSE.  See the
   GNU Lesser General Public License for more details.
   
   Cite this work as:
   * C. Bannwarth, E. Caldeweyher, S. Ehlert, A. Hansen, P. Pracht,
     J. Seibert, S. Spicher, S. Grimme, WIREs Comput. Mol. Sci., 2020, 11,
     e01493. DOI: 10.1002/wcms.1493
   
   for GFN2-xTB:
   * C. Bannwarth, S. Ehlert and S. Grimme., J. Chem. Theory Comput., 2019,
     15, 1652-1671. DOI: 10.1021/acs.jctc.8b01176
   for GFN1-xTB:
   * S. Grimme, C. Bannwarth, P. Shushkov, J. Chem. Theory Comput., 2017,
     13, 1989-2009. DOI: 10.1021/acs.jctc.7b00118
   for GFN0-xTB:
   * P. Pracht, E. Caldeweyher, S. Ehlert, S. Grimme, ChemRxiv, 2019, preprint.
     DOI: 10.26434/chemrxiv.8326202.v1
   for GFN-FF:
   * S. Spicher and S. Grimme, Angew. Chem. Int. Ed., 2020, 59, 15665-15673.
     DOI: 10.1002/anie.202004239
   
   for ALPB and GBSA implicit solvation:
   * S. Ehlert, M. Stahn, S. Spicher, S. Grimme, J. Chem. Theory Comput.,
     2021, 17, 4250-4261. DOI: 10.1021/acs.jctc.1c00471
   
   for DFT-D4:
   * E. Caldeweyher, C. Bannwarth and S. Grimme, J. Chem. Phys., 2017,
     147, 034112. DOI: 10.1063/1.4993215
   * E. Caldeweyher, S. Ehlert, A. Hansen, H. Neugebauer, S. Spicher,
     C. Bannwarth and S. Grimme, J. Chem. Phys., 2019, 150, 154122.
     DOI: 10.1063/1.5090222
   * E. Caldeweyher, J.-M. Mewes, S. Ehlert and S. Grimme, Phys. Chem. Chem. Phys.
     2020, 22, 8499-8512. DOI: 10.1039/D0CP00502A
   
   for sTDA-xTB:
   * S. Grimme and C. Bannwarth, J. Chem. Phys., 2016, 145, 054103.
     DOI: 10.1063/1.4959605
   
   in the mass-spec context:
   * V. Asgeirsson, C. Bauer and S. Grimme, Chem. Sci., 2017, 8, 4879.
     DOI: 10.1039/c7sc00601b
   * J. Koopman and S. Grimme, ACS Omega 2019, 4, 12, 15120-15133.
     DOI: 10.1021/acsomega.9b02011
   
   for metadynamics refer to:
   * S. Grimme, J. Chem. Theory Comput., 2019, 155, 2847-2862
     DOI: 10.1021/acs.jctc.9b00143
   
   for SPH calculations refer to:
   * S. Spicher and S. Grimme, J. Chem. Theory Comput., 2021, 17, 1701-1714
     DOI: 10.1021/acs.jctc.0c01306
   
   with help from (in alphabetical order)
   P. Atkinson, C. Bannwarth, F. Bohle, G. Brandenburg, E. Caldeweyher
   M. Checinski, S. Dohm, S. Ehlert, S. Ehrlich, I. Gerasimov, C. Hölzer
   A. Katbashev, J. Koopman, C. Lavigne, S. Lehtola, F. März, M. Müller,
   F. Musil, H. Neugebauer, J. Pisarek, C. Plett, P. Pracht, F. Pultar,
   J. Seibert, P. Shushkov, S. Spicher, M. Stahn, M. Steiner, T. Strunk,
   J. Stückrath, T. Rose, and J. Unsleber
   
 * started run on 2023/12/27 at 02:46:13.673     

           -------------------------------------------------
          |                Calculation Setup                |
           -------------------------------------------------

          program call               : xtb gau_xtb.xyz --chrg 1 --uhf 0 --grad
          hostname                   : node28
          coordinate file            : gau_xtb.xyz
          omp threads                :                    12

   ID    Z sym.   atoms
    1    6 C      1-25
    2    7 N      26-28
    3    1 H      29-58

           -------------------------------------------------
          |                 G F N 2 - x T B                 |
           -------------------------------------------------

        Reference                      10.1021/acs.jctc.8b01176
      * Hamiltonian:
        H0-scaling (s, p, d)           1.850000    2.230000    2.230000
        zeta-weighting                 0.500000
      * Dispersion:
        s8                             2.700000
        a1                             0.520000
        a2                             5.000000
        s9                             5.000000
      * Repulsion:
        kExp                           1.500000    1.000000
        rExp                           1.000000
      * Coulomb:
        alpha                          2.000000
        third order                    shell-resolved
        anisotropic                    true
        a3                             3.000000
        a5                             4.000000
        cn-shift                       1.200000
        cn-exp                         4.000000
        max-rad                        5.000000


          ...................................................
          :                      SETUP                      :
          :.................................................:
          :  # basis functions                 142          :
          :  # atomic orbitals                 142          :
          :  # shells                           86          :
          :  # electrons                       144          :
          :  max. iterations                   250          :
          :  Hamiltonian                  GFN2-xTB          :
          :  restarted?                      false          :
          :  GBSA solvation                  false          :
          :  PC potential                    false          :
          :  electronic temp.          300.0000000     K    :
          :  accuracy                    1.0000000          :
          :  -> integral cutoff          0.2500000E+02      :
          :  -> integral neglect         0.1000000E-07      :
          :  -> SCF convergence          0.1000000E-05 Eh   :
          :  -> wf. convergence          0.1000000E-03 e    :
          :  Broyden damping             0.4000000          :
          ...................................................

 iter      E             dE          RMSdq      gap      omega  full diag
   1    -78.3385859 -0.783386E+02  0.352E+00    1.14       0.0  T
   2    -78.4225028 -0.839169E-01  0.256E+00    1.53       1.0  T
   3    -78.3517289  0.707739E-01  0.136E+00    0.93       1.0  T
   4    -78.3747546 -0.230257E-01  0.105E+00    1.68       1.0  T
   5    -78.4757955 -0.101041E+00  0.149E-01    1.26       1.0  T
   6    -78.4762144 -0.418920E-03  0.576E-02    1.27       1.0  T
   7    -78.4762475 -0.330834E-04  0.299E-02    1.26       1.0  T
   8    -78.4762591 -0.116491E-04  0.888E-03    1.27       1.5  T
   9    -78.4762639 -0.477520E-05  0.279E-03    1.26       4.7  T
  10    -78.4762641 -0.196950E-06  0.830E-04    1.26      15.8  T
  11    -78.4762641 -0.285720E-07  0.365E-04    1.26      35.9  T

   *** convergence criteria satisfied after 11 iterations ***

         #    Occupation            Energy/Eh            Energy/eV
      -------------------------------------------------------------
         1        2.0000           -0.7542044             -20.5229
       ...           ...                  ...                  ...
        66        2.0000           -0.5043162             -13.7231
        67        2.0000           -0.4966952             -13.5158
        68        2.0000           -0.4945737             -13.4580
        69        2.0000           -0.4925904             -13.4041
        70        2.0000           -0.4708901             -12.8136
        71        2.0000           -0.4451699             -12.1137
        72        2.0000           -0.4429743             -12.0539 (HOMO)
        73                         -0.3965825             -10.7916 (LUMO)
        74                         -0.3170214              -8.6266
        75                         -0.3139596              -8.5433
        76                         -0.3130788              -8.5193
        77                         -0.3111116              -8.4658
       ...                                ...                  ...
       142                          0.5557960              15.1240
      -------------------------------------------------------------
                  HL-Gap            0.0463918 Eh            1.2624 eV
             Fermi-level           -0.4197335 Eh          -11.4215 eV

 SCC (total)                   0 d,  0 h,  0 min,  1.122 sec
 SCC setup                      ...        0 min,  0.005 sec (  0.452%)
 Dispersion                     ...        0 min,  0.005 sec (  0.469%)
 classical contributions        ...        0 min,  0.002 sec (  0.179%)
 integral evaluation            ...        0 min,  0.015 sec (  1.332%)
 iterations                     ...        0 min,  1.050 sec ( 93.551%)
 molecular gradient             ...        0 min,  0.044 sec (  3.924%)
 printout                       ...        0 min,  0.001 sec (  0.077%)

         :::::::::::::::::::::::::::::::::::::::::::::::::::::
         ::                     SUMMARY                     ::
         :::::::::::::::::::::::::::::::::::::::::::::::::::::
         :: total energy             -77.220788732099 Eh    ::
         :: gradient norm              0.071540217410 Eh/a0 ::
         :: HOMO-LUMO gap              1.262384294587 eV    ::
         ::.................................................::
         :: SCC energy               -78.476264131956 Eh    ::
         :: -> isotropic ES            0.051226585580 Eh    ::
         :: -> anisotropic ES         -0.001928965214 Eh    ::
         :: -> anisotropic XC          0.048610367171 Eh    ::
         :: -> dispersion             -0.061748782385 Eh    ::
         :: repulsion energy           1.255831270596 Eh    ::
         :: add. restraining           0.000000000000 Eh    ::
         :: total charge               1.000000000005 e     ::
         :::::::::::::::::::::::::::::::::::::::::::::::::::::

           -------------------------------------------------
          |                Property Printout                |
           -------------------------------------------------

    * Orbital Energies and Occupations

         #    Occupation            Energy/Eh            Energy/eV
      -------------------------------------------------------------
         1        2.0000           -0.7542044             -20.5229
       ...           ...                  ...                  ...
        60        2.0000           -0.5300569             -14.4236
        61        2.0000           -0.5288580             -14.3910
        62        2.0000           -0.5188620             -14.1190
        63        2.0000           -0.5170182             -14.0688
        64        2.0000           -0.5103211             -13.8865
        65        2.0000           -0.5060353             -13.7699
        66        2.0000           -0.5043162             -13.7231
        67        2.0000           -0.4966952             -13.5158
        68        2.0000           -0.4945737             -13.4580
        69        2.0000           -0.4925904             -13.4041
        70        2.0000           -0.4708901             -12.8136
        71        2.0000           -0.4451699             -12.1137
        72        2.0000           -0.4429743             -12.0539 (HOMO)
        73                         -0.3965825             -10.7916 (LUMO)
        74                         -0.3170214              -8.6266
        75                         -0.3139596              -8.5433
        76                         -0.3130788              -8.5193
        77                         -0.3111116              -8.4658
        78                         -0.3101079              -8.4385
        79                         -0.2650417              -7.2122
        80                         -0.1962622              -5.3406
        81                         -0.1940130              -5.2794
        82                         -0.1659388              -4.5154
        83                         -0.1217860              -3.3140
       ...                                ...                  ...
       142                          0.5557960              15.1240
      -------------------------------------------------------------
                  HL-Gap            0.0463918 Eh            1.2624 eV
             Fermi-level           -0.4197335 Eh          -11.4215 eV

     #   Z          covCN         q      C6AA      α(0)
     1   6 C        2.960     0.030    27.333     8.575
     2   6 C        2.960     0.001    27.998     8.679
     3   6 C        2.910    -0.026    28.649     8.777
     4   6 C        2.908    -0.058    29.448     8.898
     5   6 C        2.904     0.074    26.352     8.417
     6   6 C        2.907    -0.058    29.443     8.897
     7   6 C        2.911    -0.025    28.617     8.772
     8   6 C        2.967     0.001    28.014     8.682
     9   6 C        2.913    -0.026    28.655     8.778
    10   6 C        2.912    -0.062    29.531     8.911
    11   6 C        2.904     0.073    26.366     8.419
    12   6 C        2.908    -0.059    29.464     8.901
    13   6 C        2.909    -0.025    28.620     8.772
    14   6 C        2.958    -0.001    28.041     8.686
    15   6 C        2.909    -0.025    28.623     8.773
    16   6 C        2.904    -0.059    29.473     8.902
    17   6 C        2.904     0.073    26.370     8.420
    18   6 C        2.904    -0.059    29.454     8.899
    19   6 C        2.907    -0.025    28.629     8.773
    20   6 C        3.691    -0.059    21.835     6.687
    21   6 C        3.693    -0.058    21.812     6.682
    22   6 C        3.696    -0.061    21.844     6.686
    23   6 C        3.695    -0.061    21.862     6.689
    24   6 C        3.695    -0.059    21.820     6.683
    25   6 C        3.692    -0.061    21.858     6.690
    26   7 N        2.730    -0.042    22.054     6.975
    27   7 N        2.733    -0.044    22.095     6.981
    28   7 N        2.731    -0.040    22.025     6.970
    29   1 H        0.925     0.063     2.158     2.298
    30   1 H        0.924     0.067     2.117     2.275
    31   1 H        0.925     0.070     2.081     2.256
    32   1 H        0.924     0.064     2.152     2.294
    33   1 H        0.925     0.064     2.149     2.292
    34   1 H        0.925     0.070     2.085     2.258
    35   1 H        0.925     0.064     2.153     2.295
    36   1 H        0.925     0.070     2.090     2.261
    37   1 H        0.924     0.065     2.139     2.287
    38   1 H        0.925     0.058     2.219     2.330
    39   1 H        0.925     0.068     2.113     2.273
    40   1 H        0.925     0.067     2.116     2.275
    41   1 H        0.925     0.068     2.111     2.272
    42   1 H        0.924     0.061     2.191     2.315
    43   1 H        0.925     0.070     2.088     2.260
    44   1 H        0.924     0.065     2.140     2.288
    45   1 H        0.924     0.065     2.143     2.289
    46   1 H        0.925     0.070     2.081     2.256
    47   1 H        0.925     0.046     2.376     2.411
    48   1 H        0.926     0.048     2.341     2.393
    49   1 H        0.926     0.048     2.348     2.396
    50   1 H        0.926     0.044     2.397     2.421
    51   1 H        0.925     0.043     2.414     2.430
    52   1 H        0.926     0.045     2.382     2.413
    53   1 H        0.926     0.046     2.365     2.405
    54   1 H        0.925     0.043     2.406     2.426
    55   1 H        0.925     0.047     2.359     2.402
    56   1 H        0.926     0.047     2.357     2.401
    57   1 H        0.926     0.047     2.352     2.398
    58   1 H        0.925     0.048     2.351     2.398

 Mol. C6AA /au·bohr⁶  :      35287.702914
 Mol. C8AA /au·bohr⁸  :     838528.909906
 Mol. α(0) /au        :        296.937685


Wiberg/Mayer (AO) data.
largest (>0.10) Wiberg bond orders for each atom

 ---------------------------------------------------------------------------
     #   Z sym  total        # sym  WBO       # sym  WBO       # sym  WBO
 ---------------------------------------------------------------------------
     1   6 C    3.874 --     2 C    1.229    14 C    1.216     8 C    1.176
     2   6 C    3.971 --     3 C    1.277     7 C    1.272     1 C    1.229
     3   6 C    3.969 --     4 C    1.555     2 C    1.277    58 H    0.964
     4   6 C    3.971 --     3 C    1.555     5 C    1.260    57 H    0.964
     5   6 C    3.943 --    26 N    1.272     4 C    1.260     6 C    1.257
     6   6 C    3.970 --     7 C    1.559     5 C    1.257    56 H    0.966
     7   6 C    3.970 --     6 C    1.559     2 C    1.272    55 H    0.964
     8   6 C    3.972 --    13 C    1.299     9 C    1.291     1 C    1.176
     9   6 C    3.972 --    10 C    1.542     8 C    1.291    54 H    0.966
    10   6 C    3.972 --     9 C    1.542    11 C    1.263    53 H    0.961
    11   6 C    3.950 --    27 N    1.265    12 C    1.264    10 C    1.263
    12   6 C    3.970 --    13 C    1.539    11 C    1.264    52 H    0.963
    13   6 C    3.973 --    12 C    1.539     8 C    1.299    51 H    0.968
    14   6 C    3.972 --    19 C    1.280    15 C    1.274     1 C    1.216
    15   6 C    3.971 --    16 C    1.561    14 C    1.274    50 H    0.966
    16   6 C    3.972 --    15 C    1.561    17 C    1.250    49 H    0.965
    17   6 C    3.938 --    28 N    1.278    18 C    1.258    16 C    1.250
    18   6 C    3.970 --    19 C    1.553    17 C    1.258    48 H    0.965
    19   6 C    3.967 --    18 C    1.553    14 C    1.280    47 H    0.966
    20   6 C    3.964 --    26 N    0.998    46 H    0.979    45 H    0.974
                            44 H    0.971
    21   6 C    3.965 --    26 N    0.999    43 H    0.979    42 H    0.973
                            41 H    0.971
    22   6 C    3.966 --    27 N    1.000    40 H    0.978    39 H    0.975
                            38 H    0.972
    23   6 C    3.965 --    27 N    0.999    37 H    0.975    35 H    0.973
                            36 H    0.972
    24   6 C    3.965 --    28 N    1.001    34 H    0.979    33 H    0.973
                            32 H    0.971
    25   6 C    3.964 --    28 N    0.995    31 H    0.980    30 H    0.975
                            29 H    0.972
    26   7 N    3.446 --     5 C    1.272    21 C    0.999    20 C    0.998
    27   7 N    3.446 --    11 C    1.265    22 C    1.000    23 C    0.999
    28   7 N    3.452 --    17 C    1.278    24 C    1.001    25 C    0.995
    29   1 H    0.990 --    25 C    0.972
    30   1 H    0.993 --    25 C    0.975
    31   1 H    0.994 --    25 C    0.980
    32   1 H    0.990 --    24 C    0.971
    33   1 H    0.993 --    24 C    0.973
    34   1 H    0.994 --    24 C    0.979
    35   1 H    0.990 --    23 C    0.973
    36   1 H    0.995 --    23 C    0.972
    37   1 H    0.991 --    23 C    0.975
    38   1 H    0.989 --    22 C    0.972
    39   1 H    0.995 --    22 C    0.975
    40   1 H    0.992 --    22 C    0.978
    41   1 H    0.992 --    21 C    0.971
    42   1 H    0.991 --    21 C    0.973
    43   1 H    0.995 --    21 C    0.979
    44   1 H    0.991 --    20 C    0.971
    45   1 H    0.992 --    20 C    0.974
    46   1 H    0.995 --    20 C    0.979
    47   1 H    0.997 --    19 C    0.966
    48   1 H    0.997 --    18 C    0.965
    49   1 H    0.997 --    16 C    0.965
    50   1 H    0.997 --    15 C    0.966
    51   1 H    0.997 --    13 C    0.968
    52   1 H    0.997 --    12 C    0.963
    53   1 H    0.997 --    10 C    0.961
    54   1 H    0.997 --     9 C    0.966
    55   1 H    0.997 --     7 C    0.964
    56   1 H    0.997 --     6 C    0.966
    57   1 H    0.997 --     4 C    0.964
    58   1 H    0.997 --     3 C    0.964
 ---------------------------------------------------------------------------

Topologies differ in total number of bonds
Writing topology from bond orders to xtbtopo.mol

molecular dipole:
                 x           y           z       tot (Debye)
 q only:       19.748     -56.721     -57.720
   full:       19.717     -56.737     -57.700     211.702
molecular quadrupole (traceless):
                xx          xy          yy          xz          yz          zz
 q only:    -2911.473   -1695.585    1380.953   -1658.685    4923.220    1530.521
  q+dip:    -2915.010   -1694.296    1387.805   -1652.105    4923.911    1527.205
   full:    -2913.815   -1693.466    1385.908   -1654.786    4922.965    1527.907


           -------------------------------------------------
          | TOTAL ENERGY              -77.220788732099 Eh   |
          | GRADIENT NORM               0.071540217410 Eh/α |
          | HOMO-LUMO GAP               1.262384294587 eV   |
           -------------------------------------------------

------------------------------------------------------------------------
 * finished run on 2023/12/27 at 02:46:14.871     
------------------------------------------------------------------------
 total:
 * wall-time:     0 d,  0 h,  0 min,  1.198 sec
 *  cpu-time:     0 d,  0 h,  0 min, 14.864 sec
 * ratio c/w:    12.405 speedup
 SCF:
 * wall-time:     0 d,  0 h,  0 min,  1.122 sec
 *  cpu-time:     0 d,  0 h,  0 min, 14.065 sec
 * ratio c/w:    12.532 speedup

