      -----------------------------------------------------------      
     |                   =====================                   |     
     |                           x T B                           |     
     |                   =====================                   |     
     |                         S. Grimme                         |     
     |          Mulliken Center for Theoretical Chemistry        |     
     |                    University of Bonn                     |     
      -----------------------------------------------------------      

   * xtb version 6.6.0 (2ccbbd7) compiled by 'conda@6fe65c42fc39' on 2023-02-10

   xtb is free software: you can redistribute it and/or modify it under
   the terms of the GNU Lesser General Public License as published by
   the Free Software Foundation, either version 3 of the License, or
   (at your option) any later version.
   
   xtb is distributed in the hope that it will be useful,
   but WITHOUT ANY WARRANTY; without even the implied warranty of
   MERCHANTABILITY or FITNESS FOR A PARTICULAR PURPOSE.  See the
   GNU Lesser General Public License for more details.
   
   Cite this work as:
   * C. Bannwarth, E. Caldeweyher, S. Ehlert, A. Hansen, P. Pracht,
     J. Seibert, S. Spicher, S. Grimme, WIREs Comput. Mol. Sci., 2020, 11,
     e01493. DOI: 10.1002/wcms.1493
   
   for GFN2-xTB:
   * C. Bannwarth, S. Ehlert and S. Grimme., J. Chem. Theory Comput., 2019,
     15, 1652-1671. DOI: 10.1021/acs.jctc.8b01176
   for GFN1-xTB:
   * S. Grimme, C. Bannwarth, P. Shushkov, J. Chem. Theory Comput., 2017,
     13, 1989-2009. DOI: 10.1021/acs.jctc.7b00118
   for GFN0-xTB:
   * P. Pracht, E. Caldeweyher, S. Ehlert, S. Grimme, ChemRxiv, 2019, preprint.
     DOI: 10.26434/chemrxiv.8326202.v1
   for GFN-FF:
   * S. Spicher and S. Grimme, Angew. Chem. Int. Ed., 2020, 59, 15665-15673.
     DOI: 10.1002/anie.202004239
   
   for ALPB and GBSA implicit solvation:
   * S. Ehlert, M. Stahn, S. Spicher, S. Grimme, J. Chem. Theory Comput.,
     2021, 17, 4250-4261. DOI: 10.1021/acs.jctc.1c00471
   
   for DFT-D4:
   * E. Caldeweyher, C. Bannwarth and S. Grimme, J. Chem. Phys., 2017,
     147, 034112. DOI: 10.1063/1.4993215
   * E. Caldeweyher, S. Ehlert, A. Hansen, H. Neugebauer, S. Spicher,
     C. Bannwarth and S. Grimme, J. Chem. Phys., 2019, 150, 154122.
     DOI: 10.1063/1.5090222
   * E. Caldeweyher, J.-M. Mewes, S. Ehlert and S. Grimme, Phys. Chem. Chem. Phys.
     2020, 22, 8499-8512. DOI: 10.1039/D0CP00502A
   
   for sTDA-xTB:
   * S. Grimme and C. Bannwarth, J. Chem. Phys., 2016, 145, 054103.
     DOI: 10.1063/1.4959605
   
   in the mass-spec context:
   * V. Asgeirsson, C. Bauer and S. Grimme, Chem. Sci., 2017, 8, 4879.
     DOI: 10.1039/c7sc00601b
   * J. Koopman and S. Grimme, ACS Omega 2019, 4, 12, 15120-15133.
     DOI: 10.1021/acsomega.9b02011
   
   for metadynamics refer to:
   * S. Grimme, J. Chem. Theory Comput., 2019, 155, 2847-2862
     DOI: 10.1021/acs.jctc.9b00143
   
   for SPH calculations refer to:
   * S. Spicher and S. Grimme, J. Chem. Theory Comput., 2021, 17, 1701-1714
     DOI: 10.1021/acs.jctc.0c01306
   
   with help from (in alphabetical order)
   P. Atkinson, C. Bannwarth, F. Bohle, G. Brandenburg, E. Caldeweyher
   M. Checinski, S. Dohm, S. Ehlert, S. Ehrlich, I. Gerasimov, C. Hölzer
   A. Katbashev, J. Koopman, C. Lavigne, S. Lehtola, F. März, M. Müller,
   F. Musil, H. Neugebauer, J. Pisarek, C. Plett, P. Pracht, F. Pultar,
   J. Seibert, P. Shushkov, S. Spicher, M. Stahn, M. Steiner, T. Strunk,
   J. Stückrath, T. Rose, and J. Unsleber
   
 * started run on 2023/12/27 at 02:29:15.697     

           -------------------------------------------------
          |                Calculation Setup                |
           -------------------------------------------------

          program call               : xtb gau_xtb.xyz --chrg 1 --uhf 0 --grad
          hostname                   : node37
          coordinate file            : gau_xtb.xyz
          omp threads                :                    12

   ID    Z sym.   atoms
    1    1 H      1, 10-20, 32-40, 48-54, 61-65, 73-79, 91-101, 114-122,
                  135-144, 173-202, 204, 205
    2    7 N      2, 21, 41, 55, 66, 80, 102, 123, 170-172
    3    6 C      3, 4, 6, 7, 9, 22, 23, 25-31, 42, 43, 45, 47, 56, 57, 59,
                  67, 68, 70-72, 81, 82, 84-90, 103, 104, 106-112, 124, 125,
                  127-133, 145-169
    4    8 O      5, 24, 44, 46, 58, 60, 69, 83, 105, 113, 126, 134, 203
    5   16 S      8

molecular fragmentation (1/2 indicates fragments):
111111111111111111122222222222222222222222222222222222222222222222222222
222222222222222222222222222222222222222222222222222222222222222222222222
2222222222222222222222222222222222222222222222222222222222222
# atoms in fragment 1/2:    19   186
 fragment masses (1/2) :      133.21     1300.57
CMA distance (Bohr)    :  15.076
constraining FC (au)   :  0.0500

           -------------------------------------------------
          |                 G F N 2 - x T B                 |
           -------------------------------------------------

        Reference                      10.1021/acs.jctc.8b01176
      * Hamiltonian:
        H0-scaling (s, p, d)           1.850000    2.230000    2.230000
        zeta-weighting                 0.500000
      * Dispersion:
        s8                             2.700000
        a1                             0.520000
        a2                             5.000000
        s9                             5.000000
      * Repulsion:
        kExp                           1.500000    1.000000
        rExp                           1.000000
      * Coulomb:
        alpha                          2.000000
        third order                    shell-resolved
        anisotropic                    true
        a3                             3.000000
        a5                             4.000000
        cn-shift                       1.200000
        cn-exp                         4.000000
        max-rad                        5.000000


          ...................................................
          :                      SETUP                      :
          :.................................................:
          :  # basis functions                 520          :
          :  # atomic orbitals                 519          :
          :  # shells                          309          :
          :  # electrons                       552          :
          :  max. iterations                   250          :
          :  Hamiltonian                  GFN2-xTB          :
          :  restarted?                      false          :
          :  GBSA solvation                  false          :
          :  PC potential                    false          :
          :  electronic temp.          300.0000000     K    :
          :  accuracy                    1.0000000          :
          :  -> integral cutoff          0.2500000E+02      :
          :  -> integral neglect         0.1000000E-07      :
          :  -> SCF convergence          0.1000000E-05 Eh   :
          :  -> wf. convergence          0.1000000E-03 e    :
          :  Broyden damping             0.4000000          :
          ...................................................

 iter      E             dE          RMSdq      gap      omega  full diag
   1   -311.0305714 -0.311031E+03  0.409E+00    0.73       0.0  T
   2   -311.3748005 -0.344229E+00  0.241E+00    0.01       1.0  T
   3   -311.5037408 -0.128940E+00  0.150E+00    1.01       1.0  T
   4   -311.4965440  0.719684E-02  0.699E-01    0.04       1.0  T
   5   -311.5719976 -0.754536E-01  0.515E-01    1.36       1.0  T
   6   -311.6239251 -0.519275E-01  0.265E-01    0.79       1.0  T
   7   -311.6281571 -0.423190E-02  0.193E-01    0.60       1.0  T
   8   -311.4349043  0.193253E+00  0.726E-01    0.01       1.0  T
   9   -311.6298563 -0.194952E+00  0.155E-01    0.57       1.0  T
  10   -311.6308261 -0.969825E-03  0.140E-01    0.26       1.0  T
  11   -311.6300148  0.811274E-03  0.142E-01    0.13       1.0  T
  12   -311.6317867 -0.177186E-02  0.122E-01    0.21       1.0  T
  13   -311.6308962  0.890490E-03  0.127E-01    0.13       1.0  T
  14   -311.6324146 -0.151841E-02  0.106E-01    0.15       1.0  T
  15   -311.6328169 -0.402272E-03  0.944E-02    0.15       1.0  T
  16   -311.6332910 -0.474176E-03  0.785E-02    0.16       1.0  T
  17   -311.6348204 -0.152936E-02  0.141E-02    0.16       1.0  T
  18   -311.6348958 -0.754492E-04  0.704E-03    0.17       1.0  T
  19   -311.6347306  0.165195E-03  0.224E-02    0.15       1.0  T
  20   -311.6342803  0.450300E-03  0.428E-02    0.17       1.0  T
  21   -311.6345870 -0.306649E-03  0.300E-02    0.14       1.0  T
  22   -311.6347692 -0.182241E-03  0.201E-02    0.17       1.0  T
  23   -311.6349035 -0.134231E-03  0.522E-03    0.16       1.3  T
  24   -311.6349098 -0.632821E-05  0.311E-03    0.16       2.2  T
  25   -311.6349133 -0.349964E-05  0.131E-04    0.16      53.5  T
  26   -311.6349132  0.123821E-06  0.601E-04    0.16      11.6  T
  27   -311.6349133 -0.120815E-06  0.165E-04    0.16      42.3  T

   *** convergence criteria satisfied after 27 iterations ***

         #    Occupation            Energy/Eh            Energy/eV
      -------------------------------------------------------------
         1        2.0000           -0.8012326             -21.8026
       ...           ...                  ...                  ...
       270        2.0000           -0.4450052             -12.1092
       271        2.0000           -0.4442835             -12.0896
       272        2.0000           -0.4385155             -11.9326
       273        2.0000           -0.4230806             -11.5126
       274        2.0000           -0.4174411             -11.3592
       275        1.9504           -0.4060829             -11.0501
       276        1.9389           -0.4058792             -11.0445 (HOMO)
       277        0.1107           -0.3998986             -10.8818 (LUMO)
       278                         -0.3467271              -9.4349
       279                         -0.3427587              -9.3269
       280                         -0.3308138              -9.0019
       281                         -0.3201971              -8.7130
       ...                                ...                  ...
       519                          0.6950391              18.9130
      -------------------------------------------------------------
                  HL-Gap            0.0059807 Eh            0.1627 eV
             Fermi-level           -0.4025943 Eh          -10.9551 eV

 SCC (total)                   0 d,  0 h,  0 min,  8.522 sec
 SCC setup                      ...        0 min,  0.005 sec (  0.053%)
 Dispersion                     ...        0 min,  0.026 sec (  0.305%)
 classical contributions        ...        0 min,  0.007 sec (  0.087%)
 integral evaluation            ...        0 min,  0.080 sec (  0.937%)
 iterations                     ...        0 min,  8.064 sec ( 94.624%)
 molecular gradient             ...        0 min,  0.319 sec (  3.739%)
 printout                       ...        0 min,  0.021 sec (  0.252%)

         :::::::::::::::::::::::::::::::::::::::::::::::::::::
         ::                     SUMMARY                     ::
         :::::::::::::::::::::::::::::::::::::::::::::::::::::
         :: total energy            -306.539946828978 Eh    ::
         :: gradient norm              0.720651120904 Eh/a0 ::
         :: HOMO-LUMO gap              0.162741867771 eV    ::
         ::.................................................::
         :: SCC energy              -311.634913289602 Eh    ::
         :: -> isotropic ES            0.487382809075 Eh    ::
         :: -> anisotropic ES          0.017945323778 Eh    ::
         :: -> anisotropic XC          0.107030654678 Eh    ::
         :: -> dispersion             -0.276986497527 Eh    ::
         :: repulsion energy           5.073118469532 Eh    ::
         :: add. restraining           0.000000000000 Eh    ::
         :: total charge               1.000000000000 e     ::
         :::::::::::::::::::::::::::::::::::::::::::::::::::::

           -------------------------------------------------
          |                Property Printout                |
           -------------------------------------------------

    * Orbital Energies and Occupations

         #    Occupation            Energy/Eh            Energy/eV
      -------------------------------------------------------------
         1        2.0000           -0.8012326             -21.8026
       ...           ...                  ...                  ...
       264        2.0000           -0.4605223             -12.5314
       265        2.0000           -0.4592375             -12.4965
       266        2.0000           -0.4580140             -12.4632
       267        2.0000           -0.4578076             -12.4576
       268        2.0000           -0.4517565             -12.2929
       269        2.0000           -0.4488928             -12.2150
       270        2.0000           -0.4450052             -12.1092
       271        2.0000           -0.4442835             -12.0896
       272        2.0000           -0.4385155             -11.9326
       273        2.0000           -0.4230806             -11.5126
       274        2.0000           -0.4174411             -11.3592
       275        1.9504           -0.4060829             -11.0501
       276        1.9389           -0.4058792             -11.0445 (HOMO)
       277        0.1107           -0.3998986             -10.8818 (LUMO)
       278                         -0.3467271              -9.4349
       279                         -0.3427587              -9.3269
       280                         -0.3308138              -9.0019
       281                         -0.3201971              -8.7130
       282                         -0.3171696              -8.6306
       283                         -0.3160743              -8.6008
       284                         -0.3129194              -8.5150
       285                         -0.3123638              -8.4999
       286                         -0.3111324              -8.4663
       287                         -0.3078971              -8.3783
       ...                                ...                  ...
       519                          0.6950391              18.9130
      -------------------------------------------------------------
                  HL-Gap            0.0059807 Eh            0.1627 eV
             Fermi-level           -0.4025943 Eh          -10.9551 eV

     #   Z          covCN         q      C6AA      α(0)
     1   1 H        0.862     0.152     1.385     1.843
     2   7 N        2.633    -0.342    28.807     7.971
     3   6 C        3.788     0.031    20.071     6.381
     4   6 C        2.764     0.185    24.034     8.029
     5   8 O        0.856    -0.349    20.693     6.099
     6   6 C        3.848    -0.065    21.714     6.628
     7   6 C        3.805    -0.016    20.860     6.502
     8  16 S        1.977    -0.194   149.295    20.565
     9   6 C        3.760    -0.066    21.809     6.658
    10   1 H        0.859     0.141     1.466     1.897
    11   1 H        0.929     0.086     1.922     2.168
    12   1 H        0.929     0.051     2.303     2.373
    13   1 H        0.929     0.056     2.249     2.345
    14   1 H        0.929     0.067     2.120     2.277
    15   1 H        0.929     0.051     2.309     2.376
    16   1 H        0.930     0.052     2.297     2.370
    17   1 H        0.930     0.056     2.251     2.346
    18   1 H        0.930     0.057     2.235     2.338
    19   1 H        0.928     0.052     2.291     2.367
    20   1 H        0.862     0.158     1.349     1.819
    21   7 N        2.632    -0.307    27.916     7.847
    22   6 C        3.793     0.027    20.124     6.388
    23   6 C        2.755     0.256    22.695     7.801
    24   8 O        0.859    -0.442    22.547     6.366
    25   6 C        3.824    -0.086    22.124     6.693
    26   6 C        2.970     0.004    27.920     8.667
    27   6 C        2.932    -0.050    29.236     8.867
    28   6 C        2.933    -0.051    29.269     8.873
    29   6 C        2.924    -0.040    29.006     8.832
    30   6 C        2.924    -0.042    29.037     8.837
    31   6 C        2.927    -0.046    29.131     8.851
    32   1 H        0.857     0.151     1.395     1.850
    33   1 H        0.929     0.056     2.245     2.343
    34   1 H        0.930     0.070     2.087     2.259
    35   1 H        0.930     0.053     2.286     2.364
    36   1 H        0.930     0.057     2.239     2.340
    37   1 H        0.929     0.030     2.580     2.512
    38   1 H        0.929     0.052     2.300     2.371
    39   1 H        0.929     0.047     2.358     2.401
    40   1 H        0.930     0.043     2.408     2.427
    41   7 N        2.688    -0.168    24.629     7.371
    42   6 C        3.804     0.004    20.515     6.448
    43   6 C        2.760     0.262    22.577     7.781
    44   8 O        0.859    -0.464    23.011     6.432
    45   6 C        3.731     0.107    18.904     6.206
    46   8 O        1.643    -0.451    21.877     6.314
    47   6 C        3.767    -0.143    23.294     6.879
    48   1 H        0.857     0.177     1.232     1.739
    49   1 H        0.930     0.090     1.882     2.145
    50   1 H        0.929     0.047     2.352     2.398
    51   1 H        0.795     0.295     0.738     1.351
    52   1 H        0.930     0.072     2.065     2.247
    53   1 H        0.930     0.062     2.179     2.308
    54   1 H        0.930     0.071     2.074     2.252
    55   7 N        2.688    -0.165    24.577     7.363
    56   6 C        3.801     0.017    20.295     6.414
    57   6 C        2.761     0.255    22.718     7.805
    58   8 O        0.859    -0.430    22.278     6.328
    59   6 C        3.691     0.066    19.650     6.343
    60   8 O        1.651    -0.457    21.986     6.330
    61   1 H        0.858     0.185     1.185     1.706
    62   1 H        0.929     0.069     2.092     2.262
    63   1 H        0.930     0.059     2.204     2.322
    64   1 H        0.930     0.070     2.088     2.260
    65   1 H        0.801     0.294     0.739     1.351
    66   7 N        2.757    -0.127    23.747     7.238
    67   6 C        3.832     0.015    20.296     6.410
    68   6 C        2.756     0.260    22.624     7.789
    69   8 O        0.859    -0.436    22.411     6.347
    70   6 C        3.844    -0.078    21.950     6.664
    71   6 C        3.848    -0.079    21.976     6.668
    72   6 C        3.771    -0.011    20.798     6.499
    73   1 H        0.929     0.105     1.742     2.064
    74   1 H        0.930     0.073     2.047     2.237
    75   1 H        0.930     0.067     2.120     2.277
    76   1 H        0.929     0.056     2.248     2.344
    77   1 H        0.929     0.063     2.169     2.303
    78   1 H        0.930     0.044     2.394     2.419
    79   1 H        0.930     0.072     2.061     2.245
    80   7 N        2.685    -0.177    24.843     7.403
    81   6 C        3.799     0.029    20.088     6.382
    82   6 C        2.766     0.197    23.803     7.990
    83   8 O        0.856    -0.309    19.937     5.986
    84   6 C        3.828    -0.088    22.162     6.699
    85   6 C        2.974     0.012    27.749     8.641
    86   6 C        2.936    -0.043    29.074     8.843
    87   6 C        2.936    -0.060    29.487     8.906
    88   6 C        2.926    -0.037    28.915     8.818
    89   6 C        2.928    -0.045    29.117     8.849
    90   6 C        2.930    -0.046    29.146     8.854
    91   1 H        0.858     0.179     1.218     1.729
    92   1 H        0.929     0.115     1.650     2.008
    93   1 H        0.930     0.071     2.072     2.251
    94   1 H        0.930     0.086     1.915     2.164
    95   1 H        0.930     0.058     2.222     2.331
    96   1 H        0.929     0.049     2.333     2.389
    97   1 H        0.929     0.051     2.311     2.377
    98   1 H        0.929     0.031     2.575     2.509
    99   1 H        0.930     0.039     2.464     2.454
   100   1 H        0.928     0.059     2.207     2.323
   101   1 H        0.862     0.156     1.358     1.825
   102   7 N        2.633    -0.340    28.757     7.964
   103   6 C        3.792     0.026    20.139     6.391
   104   6 C        2.756     0.255    22.717     7.805
   105   8 O        0.859    -0.453    22.771     6.398
   106   6 C        3.821    -0.094    22.281     6.717
   107   6 C        2.966    -0.006    28.177     8.707
   108   6 C        2.933    -0.051    29.271     8.873
   109   6 C        2.934    -0.049    29.221     8.865
   110   6 C        2.924    -0.063    29.576     8.918
   111   6 C        2.923    -0.080    30.004     8.983
   112   6 C        2.853     0.141    24.931     8.184
   113   8 O        1.650    -0.399    20.830     6.161
   114   1 H        0.859     0.142     1.455     1.889
   115   1 H        0.929     0.078     2.003     2.213
   116   1 H        0.930     0.088     1.900     2.155
   117   1 H        0.930     0.052     2.300     2.372
   118   1 H        0.929     0.056     2.246     2.343
   119   1 H        0.930     0.041     2.437     2.441
   120   1 H        0.929     0.059     2.207     2.323
   121   1 H        0.930     0.046     2.370     2.407
   122   1 H        0.796     0.298     0.728     1.341
   123   7 N        2.686    -0.176    24.802     7.397
   124   6 C        3.799     0.029    20.086     6.381
   125   6 C        2.764     0.197    23.803     7.990
   126   8 O        0.856    -0.320    20.139     6.017
   127   6 C        3.823    -0.089    22.182     6.702
   128   6 C        2.969    -0.001    28.040     8.686
   129   6 C        2.935    -0.042    29.041     8.838
   130   6 C        2.934    -0.049    29.212     8.864
   131   6 C        2.924    -0.064    29.581     8.919
   132   6 C        2.924    -0.080    29.990     8.981
   133   6 C        2.855     0.134    25.071     8.207
   134   8 O        1.649    -0.419    21.219     6.218
   135   1 H        0.858     0.180     1.213     1.725
   136   1 H        0.929     0.115     1.658     2.013
   137   1 H        0.930     0.066     2.128     2.281
   138   1 H        0.930     0.095     1.831     2.116
   139   1 H        0.929     0.065     2.145     2.290
   140   1 H        0.930     0.046     2.370     2.407
   141   1 H        0.929     0.090     1.880     2.144
   142   1 H        0.930     0.039     2.460     2.452
   143   1 H        0.795     0.300     0.724     1.338
   144   1 H        0.928     0.065     2.140     2.288
   145   6 C        2.966     0.013    27.714     8.635
   146   6 C        2.968    -0.006    28.161     8.705
   147   6 C        2.917    -0.031    28.776     8.797
   148   6 C        2.915    -0.058    29.442     8.898
   149   6 C        2.909     0.071    26.406     8.426
   150   6 C        2.914    -0.059    29.476     8.903
   151   6 C        2.918    -0.032    28.791     8.799
   152   6 C        2.975    -0.005    28.144     8.702
   153   6 C        2.920    -0.030    28.741     8.791
   154   6 C        2.918    -0.061    29.523     8.910
   155   6 C        2.908     0.069    26.458     8.434
   156   6 C        2.914    -0.059    29.455     8.900
   157   6 C        2.915    -0.035    28.872     8.811
   158   6 C        2.965    -0.008    28.224     8.714
   159   6 C        2.915    -0.027    28.672     8.781
   160   6 C        2.909    -0.061    29.524     8.910
   161   6 C        2.909     0.067    26.497     8.441
   162   6 C        2.909    -0.064    29.593     8.920
   163   6 C        2.913    -0.035    28.873     8.811
   164   6 C        3.694    -0.057    21.783     6.677
   165   6 C        3.696    -0.056    21.767     6.674
   166   6 C        3.700    -0.066    21.941     6.699
   167   6 C        3.699    -0.067    21.953     6.701
   168   6 C        3.697    -0.057    21.778     6.675
   169   6 C        3.695    -0.068    21.984     6.707
   170   7 N        2.733    -0.049    22.187     6.996
   171   7 N        2.734    -0.042    22.049     6.974
   172   7 N        2.733    -0.044    22.094     6.981
   173   1 H        0.924     0.066     2.131     2.283
   174   1 H        0.924     0.089     1.888     2.149
   175   1 H        0.925     0.068     2.113     2.273
   176   1 H        0.924     0.052     2.296     2.369
   177   1 H        0.924     0.063     2.160     2.298
   178   1 H        0.925     0.071     2.074     2.252
   179   1 H        0.924     0.063     2.164     2.301
   180   1 H        0.925     0.067     2.124     2.279
   181   1 H        0.924     0.073     2.053     2.241
   182   1 H        0.924     0.069     2.101     2.267
   183   1 H        0.925     0.063     2.160     2.298
   184   1 H        0.925     0.068     2.107     2.270
   185   1 H        0.925     0.065     2.146     2.291
   186   1 H        0.924     0.059     2.215     2.327
   187   1 H        0.925     0.067     2.119     2.276
   188   1 H        0.924     0.060     2.194     2.316
   189   1 H        0.924     0.062     2.176     2.307
   190   1 H        0.925     0.069     2.101     2.267
   191   1 H        0.926     0.031     2.579     2.511
   192   1 H        0.926     0.045     2.386     2.416
   193   1 H        0.926     0.068     2.109     2.271
   194   1 H        0.926     0.042     2.426     2.436
   195   1 H        0.926     0.066     2.126     2.280
   196   1 H        0.926     0.039     2.459     2.452
   197   1 H        0.926     0.046     2.370     2.407
   198   1 H        0.926     0.040     2.447     2.446
   199   1 H        0.926     0.039     2.459     2.452
   200   1 H        0.926     0.042     2.421     2.433
   201   1 H        0.926     0.044     2.395     2.420
   202   1 H        0.926     0.044     2.397     2.421
   203   8 O        1.598    -0.601    25.215     6.777
   204   1 H        0.799     0.311     0.690     1.305
   205   1 H        0.799     0.264     0.840     1.440

 Mol. C6AA /au·bohr⁶  :     439870.479037
 Mol. C8AA /au·bohr⁸  :   10384688.511406
 Mol. α(0) /au        :       1026.438890


Wiberg/Mayer (AO) data.
largest (>0.10) Wiberg bond orders for each atom

 ---------------------------------------------------------------------------
     #   Z sym  total        # sym  WBO       # sym  WBO       # sym  WBO
 ---------------------------------------------------------------------------
     1   1 H    0.977 --     2 N    0.967
     2   7 N    3.037 --     3 C    1.018     1 H    0.967    10 H    0.960
     3   6 C    3.984 --     2 N    1.018     4 C    0.977     6 C    0.964
                            11 H    0.945
     4   6 C    3.906 --     5 O    1.883     3 C    0.977    19 H    0.948
     5   8 O    2.052 --     4 C    1.883
     6   6 C    3.993 --     7 C    1.005    12 H    0.973    13 H    0.970
                             3 C    0.964
     7   6 C    3.980 --     6 C    1.005     8 S    0.993    15 H    0.974
                            14 H    0.967
     8  16 S    2.074 --     9 C    1.007     7 C    0.993
     9   6 C    3.980 --     8 S    1.007    17 H    0.986    16 H    0.983
                            18 H    0.977
    10   1 H    0.980 --     2 N    0.960
    11   1 H    0.993 --     3 C    0.945
    12   1 H    0.997 --     6 C    0.973
    13   1 H    0.997 --     6 C    0.970
    14   1 H    0.996 --     7 C    0.967
    15   1 H    0.997 --     7 C    0.974
    16   1 H    0.997 --     9 C    0.983
    17   1 H    0.997 --     9 C    0.986
    18   1 H    0.997 --     9 C    0.977
    19   1 H    0.997 --     4 C    0.948
    20   1 H    0.975 --    21 N    0.965
    21   7 N    3.022 --    22 C    1.032    20 H    0.965    32 H    0.953
    22   6 C    3.985 --    21 N    1.032    25 C    0.969    33 H    0.952
                            23 C    0.927
    23   6 C    3.936 --    24 O    1.676    41 N    1.256    22 C    0.927
    24   8 O    1.980 --    23 C    1.676    41 N    0.188
    25   6 C    3.991 --    26 C    1.001    34 H    0.971    22 C    0.969
                            35 H    0.958
    26   6 C    3.988 --    27 C    1.417    28 C    1.415    25 C    1.001
                            31 C    0.109
    27   6 C    3.993 --    29 C    1.442    26 C    1.417    36 H    0.969
                            30 C    0.113
    28   6 C    3.994 --    30 C    1.442    26 C    1.415    37 H    0.971
                            29 C    0.112
    29   6 C    3.994 --    27 C    1.442    31 C    1.441    38 H    0.974
                            28 C    0.112
    30   6 C    3.994 --    28 C    1.442    31 C    1.440    39 H    0.974
                            27 C    0.113
    31   6 C    3.995 --    29 C    1.441    30 C    1.440    40 H    0.975
                            26 C    0.109
    32   1 H    0.977 --    21 N    0.953
    33   1 H    0.994 --    22 C    0.952
    34   1 H    0.995 --    25 C    0.971
    35   1 H    0.997 --    25 C    0.958
    36   1 H    0.997 --    27 C    0.969
    37   1 H    0.999 --    28 C    0.971
    38   1 H    0.997 --    29 C    0.974
    39   1 H    0.997 --    30 C    0.974
    40   1 H    0.998 --    31 C    0.975
    41   7 N    3.440 --    23 C    1.256    42 C    0.988    48 H    0.923
                            24 O    0.188
    42   6 C    3.972 --    41 N    0.988    45 C    0.950    49 H    0.949
                            43 C    0.944
    43   6 C    3.951 --    44 O    1.638    55 N    1.290    42 C    0.944
    44   8 O    1.961 --    43 C    1.638    55 N    0.191
    45   6 C    3.959 --    47 C    0.997    46 O    0.981    50 H    0.965
                            42 C    0.950
    46   8 O    1.944 --    45 C    0.981    51 H    0.881
    47   6 C    3.983 --    45 C    0.997    54 H    0.983    52 H    0.982
                            53 H    0.981
    48   1 H    0.969 --    41 N    0.923
    49   1 H    0.992 --    42 C    0.949
    50   1 H    0.997 --    45 C    0.965
    51   1 H    0.913 --    46 O    0.881
    52   1 H    0.994 --    47 C    0.982
    53   1 H    0.996 --    47 C    0.981
    54   1 H    0.995 --    47 C    0.983
    55   7 N    3.459 --    43 C    1.290    56 C    0.976    61 H    0.930
                            44 O    0.191
    56   6 C    3.967 --    55 N    0.976    59 C    0.975    62 H    0.956
                            57 C    0.931
    57   6 C    3.961 --    58 O    1.674    66 N    1.263    56 C    0.931
    58   8 O    2.000 --    57 C    1.674    66 N    0.202
    59   6 C    3.956 --    60 O    0.989    56 C    0.975    64 H    0.974
                            63 H    0.970
    60   8 O    1.933 --    59 C    0.989    65 H    0.862
    61   1 H    0.965 --    55 N    0.930
    62   1 H    0.995 --    56 C    0.956
    63   1 H    0.996 --    59 C    0.970
    64   1 H    0.995 --    59 C    0.974
    65   1 H    0.913 --    60 O    0.862
    66   7 N    3.480 --    57 C    1.263    72 C    0.961    67 C    0.957
                            58 O    0.202
    67   6 C    3.960 --    70 C    0.974    66 N    0.957    73 H    0.954
                            68 C    0.947
    68   6 C    3.959 --    69 O    1.668    80 N    1.277    67 C    0.947
    69   8 O    1.988 --    68 C    1.668    80 N    0.200
    70   6 C    3.990 --    71 C    1.004    75 H    0.979    74 H    0.975
                            67 C    0.974
    71   6 C    3.993 --    70 C    1.004    72 C    1.003    76 H    0.979
                            77 H    0.975
    72   6 C    3.971 --    71 C    1.003    79 H    0.970    78 H    0.965
                            66 N    0.961
    73   1 H    0.989 --    67 C    0.954
    74   1 H    0.994 --    70 C    0.975
    75   1 H    0.995 --    70 C    0.979
    76   1 H    0.997 --    71 C    0.979
    77   1 H    0.996 --    71 C    0.975
    78   1 H    0.998 --    72 C    0.965
    79   1 H    0.995 --    72 C    0.970
    80   7 N    3.453 --    68 C    1.277    81 C    0.979    91 H    0.904
                            69 O    0.200
    81   6 C    3.962 --    80 N    0.979    82 C    0.974    84 C    0.943
                            92 H    0.943
    82   6 C    3.916 --    83 O    1.932    81 C    0.974   100 H    0.947
    83   8 O    2.074 --    82 C    1.932
    84   6 C    3.985 --    85 C    1.008    93 H    0.973    94 H    0.967
                            81 C    0.943
    85   6 C    3.990 --    86 C    1.417    87 C    1.408    84 C    1.008
                            90 C    0.109
    86   6 C    3.992 --    88 C    1.441    85 C    1.417    95 H    0.973
                            89 C    0.113
    87   6 C    3.993 --    89 C    1.446    85 C    1.408    96 H    0.967
                            88 C    0.110
    88   6 C    3.994 --    90 C    1.444    86 C    1.441    97 H    0.974
                            87 C    0.110
    89   6 C    3.995 --    87 C    1.446    90 C    1.433    98 H    0.973
                            86 C    0.113
    90   6 C    3.994 --    88 C    1.444    89 C    1.433    99 H    0.973
                            85 C    0.109
    91   1 H    0.968 --    80 N    0.904
    92   1 H    0.987 --    81 C    0.943
    93   1 H    0.995 --    84 C    0.973
    94   1 H    0.992 --    84 C    0.967
    95   1 H    0.997 --    86 C    0.973
    96   1 H    0.998 --    87 C    0.967
    97   1 H    0.997 --    88 C    0.974
    98   1 H    0.999 --    89 C    0.973
    99   1 H    0.998 --    90 C    0.973
   100   1 H    0.996 --    82 C    0.947
   101   1 H    0.975 --   102 N    0.965
   102   7 N    3.013 --   103 C    1.009   101 H    0.965   114 H    0.963
   103   6 C    3.972 --   102 N    1.009   106 C    0.962   115 H    0.961
                           104 C    0.935
   104   6 C    3.942 --   105 O    1.664   123 N    1.273   103 C    0.935
   105   8 O    1.966 --   104 C    1.664   123 N    0.193
   106   6 C    3.990 --   107 C    1.004   117 H    0.975   103 C    0.962
                           116 H    0.959
   107   6 C    3.988 --   108 C    1.412   109 C    1.411   106 C    1.004
   108   6 C    3.993 --   110 C    1.450   107 C    1.412   118 H    0.972
                           111 C    0.107
   109   6 C    3.994 --   111 C    1.448   107 C    1.411   119 H    0.972
                           110 C    0.108
   110   6 C    3.991 --   108 C    1.450   112 C    1.373   120 H    0.971
                           109 C    0.108
   111   6 C    3.991 --   109 C    1.448   112 C    1.378   121 H    0.968
                           108 C    0.107
   112   6 C    3.940 --   111 C    1.378   110 C    1.373   113 O    1.061
   113   8 O    2.105 --   112 C    1.061   122 H    0.888
   114   1 H    0.980 --   102 N    0.963
   115   1 H    0.991 --   103 C    0.961
   116   1 H    0.991 --   106 C    0.959
   117   1 H    0.997 --   106 C    0.975
   118   1 H    0.997 --   108 C    0.972
   119   1 H    0.998 --   109 C    0.972
   120   1 H    0.996 --   110 C    0.971
   121   1 H    0.998 --   111 C    0.968
   122   1 H    0.911 --   113 O    0.888
   123   7 N    3.443 --   104 C    1.273   124 C    0.981   135 H    0.924
                           105 O    0.193
   124   6 C    3.968 --   123 N    0.981   125 C    0.980   127 C    0.959
                           136 H    0.924
   125   6 C    3.913 --   126 O    1.923   124 C    0.980   144 H    0.947
   126   8 O    2.071 --   125 C    1.923
   127   6 C    3.986 --   128 C    1.008   137 H    0.974   138 H    0.962
                           124 C    0.959
   128   6 C    3.989 --   130 C    1.415   129 C    1.408   127 C    1.008
   129   6 C    3.992 --   131 C    1.452   128 C    1.408   139 H    0.971
                           132 C    0.108
   130   6 C    3.993 --   132 C    1.440   128 C    1.415   140 H    0.973
                           131 C    0.109
   131   6 C    3.988 --   129 C    1.452   133 C    1.381   141 H    0.961
                           130 C    0.109
   132   6 C    3.990 --   130 C    1.440   133 C    1.389   142 H    0.969
                           129 C    0.108
   133   6 C    3.929 --   132 C    1.389   131 C    1.381   134 O    1.026
   134   8 O    2.102 --   133 C    1.026   143 H    0.876
   135   1 H    0.967 --   123 N    0.924
   136   1 H    0.987 --   124 C    0.924
   137   1 H    0.995 --   127 C    0.974
   138   1 H    0.990 --   127 C    0.962
   139   1 H    0.996 --   129 C    0.971
   140   1 H    0.998 --   130 C    0.973
   141   1 H    0.992 --   131 C    0.961
   142   1 H    0.998 --   132 C    0.969
   143   1 H    0.910 --   134 O    0.876
   144   1 H    0.995 --   125 C    0.947
   145   6 C    3.833 --   146 C    1.214   158 C    1.209   152 C    1.187
   146   6 C    3.978 --   147 C    1.284   151 C    1.280   145 C    1.214
   147   6 C    3.961 --   148 C    1.546   146 C    1.284   202 H    0.964
   148   6 C    3.974 --   147 C    1.546   149 C    1.271   201 H    0.964
   149   6 C    3.938 --   148 C    1.271   150 C    1.267   170 N    1.248
   150   6 C    3.972 --   151 C    1.549   149 C    1.267   200 H    0.965
   151   6 C    3.961 --   150 C    1.549   146 C    1.280   199 H    0.964
   152   6 C    3.970 --   157 C    1.293   153 C    1.285   145 C    1.187
   153   6 C    3.965 --   154 C    1.546   152 C    1.285   198 H    0.965
   154   6 C    3.971 --   153 C    1.546   155 C    1.263   197 H    0.961
   155   6 C    3.945 --   156 C    1.265   154 C    1.263   171 N    1.260
   156   6 C    3.969 --   157 C    1.541   155 C    1.265   196 H    0.962
   157   6 C    3.963 --   156 C    1.541   152 C    1.293   195 H    0.955
   158   6 C    3.972 --   163 C    1.285   159 C    1.274   145 C    1.209
   159   6 C    3.965 --   160 C    1.561   158 C    1.274   194 H    0.963
   160   6 C    3.972 --   159 C    1.561   161 C    1.256   193 H    0.961
   161   6 C    3.941 --   172 N    1.265   162 C    1.263   160 C    1.256
   162   6 C    3.969 --   163 C    1.546   161 C    1.263   192 H    0.963
   163   6 C    3.961 --   162 C    1.546   158 C    1.285   191 H    0.964
   164   6 C    3.967 --   170 N    1.003   190 H    0.978   189 H    0.973
                           188 H    0.971
   165   6 C    3.967 --   170 N    1.005   187 H    0.978   185 H    0.970
                           186 H    0.969
   166   6 C    3.963 --   171 N    1.003   184 H    0.975   183 H    0.973
                           182 H    0.961
   167   6 C    3.965 --   171 N    1.004   180 H    0.973   179 H    0.971
                           181 H    0.959
   168   6 C    3.968 --   172 N    1.007   178 H    0.977   177 H    0.973
                           176 H    0.970
   169   6 C    3.957 --   172 N    0.997   175 H    0.978   173 H    0.969
                           174 H    0.968
   170   7 N    3.436 --   149 C    1.248   165 C    1.005   164 C    1.003
   171   7 N    3.445 --   155 C    1.260   167 C    1.004   166 C    1.003
   172   7 N    3.448 --   161 C    1.265   168 C    1.007   169 C    0.997
   173   1 H    0.988 --   169 C    0.969
   174   1 H    0.990 --   169 C    0.968
   175   1 H    0.994 --   169 C    0.978
   176   1 H    0.991 --   168 C    0.970
   177   1 H    0.993 --   168 C    0.973
   178   1 H    0.993 --   168 C    0.977
   179   1 H    0.989 --   167 C    0.971
   180   1 H    0.995 --   167 C    0.973
   181   1 H    0.989 --   167 C    0.959
   182   1 H    0.987 --   166 C    0.961
   183   1 H    0.995 --   166 C    0.973
   184   1 H    0.991 --   166 C    0.975
   185   1 H    0.992 --   165 C    0.970
   186   1 H    0.991 --   165 C    0.969
   187   1 H    0.995 --   165 C    0.978
   188   1 H    0.992 --   164 C    0.971
   189   1 H    0.992 --   164 C    0.973
   190   1 H    0.995 --   164 C    0.978
   191   1 H    0.998 --   163 C    0.964
   192   1 H    0.997 --   162 C    0.963
   193   1 H    0.994 --   160 C    0.961
   194   1 H    0.998 --   159 C    0.963
   195   1 H    0.995 --   157 C    0.955
   196   1 H    0.997 --   156 C    0.962
   197   1 H    0.997 --   154 C    0.961
   198   1 H    0.998 --   153 C    0.965
   199   1 H    0.998 --   151 C    0.964
   200   1 H    0.998 --   150 C    0.965
   201   1 H    0.997 --   148 C    0.964
   202   1 H    0.997 --   147 C    0.964
   203   8 O    1.818 --   205 H    0.917   204 H    0.857
   204   1 H    0.903 --   203 O    0.857
   205   1 H    0.930 --   203 O    0.917
 ---------------------------------------------------------------------------

Topologies differ in total number of bonds
Writing topology from bond orders to xtbtopo.mol

molecular dipole:
                 x           y           z       tot (Debye)
 q only:       21.918     -55.142     -57.410
   full:       22.287     -54.241     -57.918     209.495
molecular quadrupole (traceless):
                xx          xy          yy          xz          yz          zz
 q only:    -2734.787   -1851.862    1146.945   -1843.092    4731.441    1587.842
  q+dip:    -2691.026   -1858.790     988.962   -1882.052    4686.143    1702.064
   full:    -2692.347   -1854.763     989.065   -1883.937    4684.969    1703.282


           -------------------------------------------------
          | TOTAL ENERGY             -306.539946828978 Eh   |
          | GRADIENT NORM               0.720651120904 Eh/α |
          | HOMO-LUMO GAP               0.162741867771 eV   |
           -------------------------------------------------

------------------------------------------------------------------------
 * finished run on 2023/12/27 at 02:29:24.401     
------------------------------------------------------------------------
 total:
 * wall-time:     0 d,  0 h,  0 min,  8.703 sec
 *  cpu-time:     0 d,  0 h,  1 min, 48.619 sec
 * ratio c/w:    12.481 speedup
 SCF:
 * wall-time:     0 d,  0 h,  0 min,  8.525 sec
 *  cpu-time:     0 d,  0 h,  1 min, 46.267 sec
 * ratio c/w:    12.465 speedup

