      -----------------------------------------------------------      
     |                   =====================                   |     
     |                           x T B                           |     
     |                   =====================                   |     
     |                         S. Grimme                         |     
     |          Mulliken Center for Theoretical Chemistry        |     
     |                    University of Bonn                     |     
      -----------------------------------------------------------      

   * xtb version 6.6.0 (2ccbbd7) compiled by 'conda@6fe65c42fc39' on 2023-02-10

   xtb is free software: you can redistribute it and/or modify it under
   the terms of the GNU Lesser General Public License as published by
   the Free Software Foundation, either version 3 of the License, or
   (at your option) any later version.
   
   xtb is distributed in the hope that it will be useful,
   but WITHOUT ANY WARRANTY; without even the implied warranty of
   MERCHANTABILITY or FITNESS FOR A PARTICULAR PURPOSE.  See the
   GNU Lesser General Public License for more details.
   
   Cite this work as:
   * C. Bannwarth, E. Caldeweyher, S. Ehlert, A. Hansen, P. Pracht,
     J. Seibert, S. Spicher, S. Grimme, WIREs Comput. Mol. Sci., 2020, 11,
     e01493. DOI: 10.1002/wcms.1493
   
   for GFN2-xTB:
   * C. Bannwarth, S. Ehlert and S. Grimme., J. Chem. Theory Comput., 2019,
     15, 1652-1671. DOI: 10.1021/acs.jctc.8b01176
   for GFN1-xTB:
   * S. Grimme, C. Bannwarth, P. Shushkov, J. Chem. Theory Comput., 2017,
     13, 1989-2009. DOI: 10.1021/acs.jctc.7b00118
   for GFN0-xTB:
   * P. Pracht, E. Caldeweyher, S. Ehlert, S. Grimme, ChemRxiv, 2019, preprint.
     DOI: 10.26434/chemrxiv.8326202.v1
   for GFN-FF:
   * S. Spicher and S. Grimme, Angew. Chem. Int. Ed., 2020, 59, 15665-15673.
     DOI: 10.1002/anie.202004239
   
   for ALPB and GBSA implicit solvation:
   * S. Ehlert, M. Stahn, S. Spicher, S. Grimme, J. Chem. Theory Comput.,
     2021, 17, 4250-4261. DOI: 10.1021/acs.jctc.1c00471
   
   for DFT-D4:
   * E. Caldeweyher, C. Bannwarth and S. Grimme, J. Chem. Phys., 2017,
     147, 034112. DOI: 10.1063/1.4993215
   * E. Caldeweyher, S. Ehlert, A. Hansen, H. Neugebauer, S. Spicher,
     C. Bannwarth and S. Grimme, J. Chem. Phys., 2019, 150, 154122.
     DOI: 10.1063/1.5090222
   * E. Caldeweyher, J.-M. Mewes, S. Ehlert and S. Grimme, Phys. Chem. Chem. Phys.
     2020, 22, 8499-8512. DOI: 10.1039/D0CP00502A
   
   for sTDA-xTB:
   * S. Grimme and C. Bannwarth, J. Chem. Phys., 2016, 145, 054103.
     DOI: 10.1063/1.4959605
   
   in the mass-spec context:
   * V. Asgeirsson, C. Bauer and S. Grimme, Chem. Sci., 2017, 8, 4879.
     DOI: 10.1039/c7sc00601b
   * J. Koopman and S. Grimme, ACS Omega 2019, 4, 12, 15120-15133.
     DOI: 10.1021/acsomega.9b02011
   
   for metadynamics refer to:
   * S. Grimme, J. Chem. Theory Comput., 2019, 155, 2847-2862
     DOI: 10.1021/acs.jctc.9b00143
   
   for SPH calculations refer to:
   * S. Spicher and S. Grimme, J. Chem. Theory Comput., 2021, 17, 1701-1714
     DOI: 10.1021/acs.jctc.0c01306
   
   with help from (in alphabetical order)
   P. Atkinson, C. Bannwarth, F. Bohle, G. Brandenburg, E. Caldeweyher
   M. Checinski, S. Dohm, S. Ehlert, S. Ehrlich, I. Gerasimov, C. Hölzer
   A. Katbashev, J. Koopman, C. Lavigne, S. Lehtola, F. März, M. Müller,
   F. Musil, H. Neugebauer, J. Pisarek, C. Plett, P. Pracht, F. Pultar,
   J. Seibert, P. Shushkov, S. Spicher, M. Stahn, M. Steiner, T. Strunk,
   J. Stückrath, T. Rose, and J. Unsleber
   
 * started run on 2023/12/24 at 23:43:47.154     

           -------------------------------------------------
          |                Calculation Setup                |
           -------------------------------------------------

          program call               : xtb gau_xtb.xyz --chrg 0 --uhf 0 --grad
          hostname                   : node36
          coordinate file            : gau_xtb.xyz
          omp threads                :                    12

   ID    Z sym.   atoms
    1    6 C      1-6, 8-10, 12, 14, 16, 18-24, 26, 28, 29
    2    7 N      7, 11, 15
    3    8 O      13, 17, 25, 27
    4    1 H      30-48

           -------------------------------------------------
          |                 G F N 2 - x T B                 |
           -------------------------------------------------

        Reference                      10.1021/acs.jctc.8b01176
      * Hamiltonian:
        H0-scaling (s, p, d)           1.850000    2.230000    2.230000
        zeta-weighting                 0.500000
      * Dispersion:
        s8                             2.700000
        a1                             0.520000
        a2                             5.000000
        s9                             5.000000
      * Repulsion:
        kExp                           1.500000    1.000000
        rExp                           1.000000
      * Coulomb:
        alpha                          2.000000
        third order                    shell-resolved
        anisotropic                    true
        a3                             3.000000
        a5                             4.000000
        cn-shift                       1.200000
        cn-exp                         4.000000
        max-rad                        5.000000


          ...................................................
          :                      SETUP                      :
          :.................................................:
          :  # basis functions                 135          :
          :  # atomic orbitals                 135          :
          :  # shells                           77          :
          :  # electrons                       146          :
          :  max. iterations                   250          :
          :  Hamiltonian                  GFN2-xTB          :
          :  restarted?                      false          :
          :  GBSA solvation                  false          :
          :  PC potential                    false          :
          :  electronic temp.          300.0000000     K    :
          :  accuracy                    1.0000000          :
          :  -> integral cutoff          0.2500000E+02      :
          :  -> integral neglect         0.1000000E-07      :
          :  -> SCF convergence          0.1000000E-05 Eh   :
          :  -> wf. convergence          0.1000000E-03 e    :
          :  Broyden damping             0.4000000          :
          ...................................................

 iter      E             dE          RMSdq      gap      omega  full diag
   1    -82.8212108 -0.828212E+02  0.408E+00    3.21       0.0  T
   2    -82.9769184 -0.155708E+00  0.245E+00    3.32       1.0  T
   3    -82.9835668 -0.664834E-02  0.129E+00    3.48       1.0  T
   4    -82.9883956 -0.482888E-02  0.465E-01    3.35       1.0  T
   5    -82.9984580 -0.100624E-01  0.111E-01    3.39       1.0  T
   6    -82.9986727 -0.214713E-03  0.611E-02    3.39       1.0  T
   7    -82.9987495 -0.767588E-04  0.235E-02    3.39       1.0  T
   8    -82.9987512 -0.170278E-05  0.107E-02    3.39       1.3  T
   9    -82.9987546 -0.342342E-05  0.310E-03    3.39       4.7  T
  10    -82.9987547 -0.845878E-07  0.135E-03    3.39      10.7  T
  11    -82.9987547 -0.269186E-07  0.602E-04    3.39      24.0  T
  12    -82.9987547 -0.511884E-08  0.271E-04    3.39      53.2  T

   *** convergence criteria satisfied after 12 iterations ***

         #    Occupation            Energy/Eh            Energy/eV
      -------------------------------------------------------------
         1        2.0000           -0.7470200             -20.3274
       ...           ...                  ...                  ...
        67        2.0000           -0.4127818             -11.2324
        68        2.0000           -0.4059106             -11.0454
        69        2.0000           -0.4032200             -10.9722
        70        2.0000           -0.3975874             -10.8189
        71        2.0000           -0.3833584             -10.4317
        72        2.0000           -0.3800643             -10.3421
        73        2.0000           -0.3629020              -9.8751 (HOMO)
        74                         -0.2383527              -6.4859 (LUMO)
        75                         -0.2347057              -6.3867
        76                         -0.2295015              -6.2451
        77                         -0.2274205              -6.1884
        78                         -0.2201029              -5.9893
       ...                                ...                  ...
       135                          0.6902132              18.7817
      -------------------------------------------------------------
                  HL-Gap            0.1245493 Eh            3.3892 eV
             Fermi-level           -0.3006273 Eh           -8.1805 eV

 SCC (total)                   0 d,  0 h,  0 min,  0.087 sec
 SCC setup                      ...        0 min,  0.001 sec (  0.641%)
 Dispersion                     ...        0 min,  0.002 sec (  1.817%)
 classical contributions        ...        0 min,  0.000 sec (  0.186%)
 integral evaluation            ...        0 min,  0.006 sec (  6.819%)
 iterations                     ...        0 min,  0.072 sec ( 82.808%)
 molecular gradient             ...        0 min,  0.006 sec (  7.102%)
 printout                       ...        0 min,  0.000 sec (  0.334%)

         :::::::::::::::::::::::::::::::::::::::::::::::::::::
         ::                     SUMMARY                     ::
         :::::::::::::::::::::::::::::::::::::::::::::::::::::
         :: total energy             -81.912101193478 Eh    ::
         :: gradient norm              0.073797947042 Eh/a0 ::
         :: HOMO-LUMO gap              3.389159733678 eV    ::
         ::.................................................::
         :: SCC energy               -82.998754711447 Eh    ::
         :: -> isotropic ES            0.109192754844 Eh    ::
         :: -> anisotropic ES          0.007390618134 Eh    ::
         :: -> anisotropic XC          0.021344388703 Eh    ::
         :: -> dispersion             -0.058914178447 Eh    ::
         :: repulsion energy           1.085907640263 Eh    ::
         :: add. restraining           0.000000000000 Eh    ::
         :: total charge               0.000000000000 e     ::
         :::::::::::::::::::::::::::::::::::::::::::::::::::::

           -------------------------------------------------
          |                Property Printout                |
           -------------------------------------------------

    * Orbital Energies and Occupations

         #    Occupation            Energy/Eh            Energy/eV
      -------------------------------------------------------------
         1        2.0000           -0.7470200             -20.3274
       ...           ...                  ...                  ...
        61        2.0000           -0.4474491             -12.1757
        62        2.0000           -0.4396456             -11.9634
        63        2.0000           -0.4266156             -11.6088
        64        2.0000           -0.4206408             -11.4462
        65        2.0000           -0.4176302             -11.3643
        66        2.0000           -0.4141305             -11.2691
        67        2.0000           -0.4127818             -11.2324
        68        2.0000           -0.4059106             -11.0454
        69        2.0000           -0.4032200             -10.9722
        70        2.0000           -0.3975874             -10.8189
        71        2.0000           -0.3833584             -10.4317
        72        2.0000           -0.3800643             -10.3421
        73        2.0000           -0.3629020              -9.8751 (HOMO)
        74                         -0.2383527              -6.4859 (LUMO)
        75                         -0.2347057              -6.3867
        76                         -0.2295015              -6.2451
        77                         -0.2274205              -6.1884
        78                         -0.2201029              -5.9893
        79                         -0.2019233              -5.4946
        80                         -0.1647815              -4.4839
        81                         -0.1098351              -2.9888
        82                         -0.0795160              -2.1637
        83                         -0.0478861              -1.3030
        84                         -0.0303783              -0.8266
       ...                                ...                  ...
       135                          0.6902132              18.7817
      -------------------------------------------------------------
                  HL-Gap            0.1245493 Eh            3.3892 eV
             Fermi-level           -0.3006273 Eh           -8.1805 eV

     #   Z          covCN         q      C6AA      α(0)
     1   6 C        2.917    -0.036    28.903     8.816
     2   6 C        2.912    -0.039    28.970     8.826
     3   6 C        2.906    -0.037    28.930     8.819
     4   6 C        3.108    -0.015    28.233     8.706
     5   6 C        3.044    -0.039    28.928     8.821
     6   6 C        3.090     0.030    27.236     8.554
     7   7 N        2.761    -0.120    23.600     7.215
     8   6 C        3.063     0.044    26.954     8.514
     9   6 C        2.901    -0.050    29.248     8.867
    10   6 C        3.812     0.043    19.851     6.342
    11   7 N        2.733    -0.120    23.604     7.216
    12   6 C        2.771     0.263    22.573     7.781
    13   8 O        0.859    -0.432    22.326     6.335
    14   6 C        3.748    -0.026    21.098     6.551
    15   7 N        2.731    -0.089    22.986     7.121
    16   6 C        2.766     0.257    22.669     7.797
    17   8 O        0.859    -0.440    22.502     6.360
    18   6 C        3.795     0.025    20.167     6.395
    19   6 C        3.808    -0.053    21.515     6.603
    20   6 C        3.699    -0.051    21.665     6.657
    21   6 C        2.976     0.003    27.943     8.671
    22   6 C        2.927    -0.042    29.038     8.837
    23   6 C        2.908    -0.054    29.331     8.880
    24   6 C        2.983     0.121    25.333     8.256
    25   8 O        1.712    -0.285    18.732     5.844
    26   6 C        3.792     0.215    17.245     5.914
    27   8 O        1.704    -0.291    18.831     5.859
    28   6 C        2.988     0.128    25.184     8.232
    29   6 C        2.913    -0.061    29.526     8.910
    30   1 H        0.924     0.039     2.460     2.453
    31   1 H        0.925     0.066     2.125     2.279
    32   1 H        0.924     0.051     2.303     2.373
    33   1 H        0.924     0.054     2.276     2.359
    34   1 H        0.925     0.095     1.833     2.117
    35   1 H        0.924     0.069     2.095     2.264
    36   1 H        0.924     0.080     1.981     2.201
    37   1 H        0.924     0.051     2.305     2.375
    38   1 H        0.925     0.072     2.062     2.246
    39   1 H        0.860     0.159     1.341     1.814
    40   1 H        0.925     0.027     2.625     2.533
    41   1 H        0.925     0.030     2.585     2.514
    42   1 H        0.925     0.062     2.175     2.306
    43   1 H        0.925     0.061     2.182     2.310
    44   1 H        0.925     0.061     2.187     2.313
    45   1 H        0.925     0.029     2.599     2.521
    46   1 H        0.924     0.059     2.206     2.323
    47   1 H        0.923     0.051     2.303     2.373
    48   1 H        0.925     0.033     2.543     2.494

 Mol. C6AA /au·bohr⁶  :      29324.740228
 Mol. C8AA /au·bohr⁸  :     708245.411657
 Mol. α(0) /au        :        265.867419


Wiberg/Mayer (AO) data.
largest (>0.10) Wiberg bond orders for each atom

 ---------------------------------------------------------------------------
     #   Z sym  total        # sym  WBO       # sym  WBO       # sym  WBO
 ---------------------------------------------------------------------------
     1   6 C    3.987 --     9 C    1.481     2 C    1.376    41 H    0.972
     2   6 C    3.990 --     3 C    1.508     1 C    1.376    45 H    0.971
     3   6 C    3.987 --     2 C    1.508     4 C    1.318    48 H    0.970
                             9 C    0.116
     4   6 C    3.982 --     3 C    1.318     8 C    1.257     5 C    1.207
     5   6 C    3.969 --     6 C    1.539     4 C    1.207    19 C    1.015
     6   6 C    3.951 --     5 C    1.539     7 N    1.189    10 C    0.994
     7   7 N    3.520 --     6 C    1.189     8 C    1.145    39 H    0.945
     8   6 C    3.951 --     9 C    1.350     4 C    1.257     7 N    1.145
     9   6 C    3.987 --     1 C    1.481     8 C    1.350    40 H    0.969
                             3 C    0.116
    10   6 C    3.968 --     6 C    0.994    21 C    0.965    11 N    0.957
                            46 H    0.946
    11   7 N    3.463 --    12 C    1.235    18 C    0.968    10 C    0.957
                            13 O    0.195
    12   6 C    3.959 --    13 O    1.682    11 N    1.235    14 C    0.969
    13   8 O    2.005 --    12 C    1.682    11 N    0.195
    14   6 C    3.973 --    15 N    0.996    12 C    0.969    36 H    0.951
                            35 H    0.943
    15   7 N    3.500 --    16 C    1.258    14 C    0.996    20 C    0.991
                            17 O    0.199
    16   6 C    3.958 --    17 O    1.661    15 N    1.258    18 C    0.952
    17   8 O    1.990 --    16 C    1.661    15 N    0.199
    18   6 C    3.968 --    19 C    0.980    11 N    0.968    16 C    0.952
                            47 H    0.937
    19   6 C    3.989 --     5 C    1.015    18 C    0.980    38 H    0.965
                            37 H    0.959
    20   6 C    3.959 --    15 N    0.991    33 H    0.977    32 H    0.976
                            34 H    0.972
    21   6 C    3.980 --    22 C    1.442    29 C    1.380    10 C    0.965
    22   6 C    3.985 --    21 C    1.442    23 C    1.395    42 H    0.966
    23   6 C    3.984 --    24 C    1.430    22 C    1.395    43 H    0.966
    24   6 C    3.924 --    23 C    1.430    28 C    1.298    25 O    1.008
    25   8 O    2.185 --    24 C    1.008    26 C    0.993
    26   6 C    3.919 --    25 O    0.993    31 H    0.968    30 H    0.962
                            27 O    0.954
    27   8 O    2.186 --    28 C    1.039    26 C    0.954
    28   6 C    3.933 --    29 C    1.417    24 C    1.298    27 O    1.039
    29   6 C    3.983 --    28 C    1.417    21 C    1.380    44 H    0.964
    30   1 H    0.998 --    26 C    0.962
    31   1 H    0.995 --    26 C    0.968
    32   1 H    0.997 --    20 C    0.976
    33   1 H    0.997 --    20 C    0.977
    34   1 H    0.991 --    20 C    0.972
    35   1 H    0.995 --    14 C    0.943
    36   1 H    0.993 --    14 C    0.951
    37   1 H    0.997 --    19 C    0.959
    38   1 H    0.994 --    19 C    0.965
    39   1 H    0.974 --     7 N    0.945
    40   1 H    0.999 --     9 C    0.969
    41   1 H    0.999 --     1 C    0.972
    42   1 H    0.996 --    22 C    0.966
    43   1 H    0.996 --    23 C    0.966
    44   1 H    0.996 --    29 C    0.964
    45   1 H    0.999 --     2 C    0.971
    46   1 H    0.994 --    10 C    0.946
    47   1 H    0.997 --    18 C    0.937
    48   1 H    0.998 --     3 C    0.970
 ---------------------------------------------------------------------------

Topologies differ in total number of bonds
Writing topology from bond orders to xtbtopo.mol

molecular dipole:
                 x           y           z       tot (Debye)
 q only:        0.117      -0.582      -0.127
   full:        0.332      -0.906      -0.233       2.524
molecular quadrupole (traceless):
                xx          xy          yy          xz          yz          zz
 q only:       66.160     -62.754     -88.906      -0.290     -42.850      22.747
  q+dip:      128.723     -83.424    -147.928      -5.307     -66.472      19.206
   full:      130.245     -81.491    -148.490      -5.232     -68.097      18.245


           -------------------------------------------------
          | TOTAL ENERGY              -81.912101193478 Eh   |
          | GRADIENT NORM               0.073797947042 Eh/α |
          | HOMO-LUMO GAP               3.389159733678 eV   |
           -------------------------------------------------

------------------------------------------------------------------------
 * finished run on 2023/12/24 at 23:43:47.304     
------------------------------------------------------------------------
 total:
 * wall-time:     0 d,  0 h,  0 min,  0.150 sec
 *  cpu-time:     0 d,  0 h,  0 min,  2.939 sec
 * ratio c/w:    19.547 speedup
 SCF:
 * wall-time:     0 d,  0 h,  0 min,  0.087 sec
 *  cpu-time:     0 d,  0 h,  0 min,  2.003 sec
 * ratio c/w:    22.941 speedup

