      -----------------------------------------------------------      
     |                   =====================                   |     
     |                           x T B                           |     
     |                   =====================                   |     
     |                         S. Grimme                         |     
     |          Mulliken Center for Theoretical Chemistry        |     
     |                    University of Bonn                     |     
      -----------------------------------------------------------      

   * xtb version 6.6.0 (2ccbbd7) compiled by 'conda@6fe65c42fc39' on 2023-02-10

   xtb is free software: you can redistribute it and/or modify it under
   the terms of the GNU Lesser General Public License as published by
   the Free Software Foundation, either version 3 of the License, or
   (at your option) any later version.
   
   xtb is distributed in the hope that it will be useful,
   but WITHOUT ANY WARRANTY; without even the implied warranty of
   MERCHANTABILITY or FITNESS FOR A PARTICULAR PURPOSE.  See the
   GNU Lesser General Public License for more details.
   
   Cite this work as:
   * C. Bannwarth, E. Caldeweyher, S. Ehlert, A. Hansen, P. Pracht,
     J. Seibert, S. Spicher, S. Grimme, WIREs Comput. Mol. Sci., 2020, 11,
     e01493. DOI: 10.1002/wcms.1493
   
   for GFN2-xTB:
   * C. Bannwarth, S. Ehlert and S. Grimme., J. Chem. Theory Comput., 2019,
     15, 1652-1671. DOI: 10.1021/acs.jctc.8b01176
   for GFN1-xTB:
   * S. Grimme, C. Bannwarth, P. Shushkov, J. Chem. Theory Comput., 2017,
     13, 1989-2009. DOI: 10.1021/acs.jctc.7b00118
   for GFN0-xTB:
   * P. Pracht, E. Caldeweyher, S. Ehlert, S. Grimme, ChemRxiv, 2019, preprint.
     DOI: 10.26434/chemrxiv.8326202.v1
   for GFN-FF:
   * S. Spicher and S. Grimme, Angew. Chem. Int. Ed., 2020, 59, 15665-15673.
     DOI: 10.1002/anie.202004239
   
   for ALPB and GBSA implicit solvation:
   * S. Ehlert, M. Stahn, S. Spicher, S. Grimme, J. Chem. Theory Comput.,
     2021, 17, 4250-4261. DOI: 10.1021/acs.jctc.1c00471
   
   for DFT-D4:
   * E. Caldeweyher, C. Bannwarth and S. Grimme, J. Chem. Phys., 2017,
     147, 034112. DOI: 10.1063/1.4993215
   * E. Caldeweyher, S. Ehlert, A. Hansen, H. Neugebauer, S. Spicher,
     C. Bannwarth and S. Grimme, J. Chem. Phys., 2019, 150, 154122.
     DOI: 10.1063/1.5090222
   * E. Caldeweyher, J.-M. Mewes, S. Ehlert and S. Grimme, Phys. Chem. Chem. Phys.
     2020, 22, 8499-8512. DOI: 10.1039/D0CP00502A
   
   for sTDA-xTB:
   * S. Grimme and C. Bannwarth, J. Chem. Phys., 2016, 145, 054103.
     DOI: 10.1063/1.4959605
   
   in the mass-spec context:
   * V. Asgeirsson, C. Bauer and S. Grimme, Chem. Sci., 2017, 8, 4879.
     DOI: 10.1039/c7sc00601b
   * J. Koopman and S. Grimme, ACS Omega 2019, 4, 12, 15120-15133.
     DOI: 10.1021/acsomega.9b02011
   
   for metadynamics refer to:
   * S. Grimme, J. Chem. Theory Comput., 2019, 155, 2847-2862
     DOI: 10.1021/acs.jctc.9b00143
   
   for SPH calculations refer to:
   * S. Spicher and S. Grimme, J. Chem. Theory Comput., 2021, 17, 1701-1714
     DOI: 10.1021/acs.jctc.0c01306
   
   with help from (in alphabetical order)
   P. Atkinson, C. Bannwarth, F. Bohle, G. Brandenburg, E. Caldeweyher
   M. Checinski, S. Dohm, S. Ehlert, S. Ehrlich, I. Gerasimov, C. Hölzer
   A. Katbashev, J. Koopman, C. Lavigne, S. Lehtola, F. März, M. Müller,
   F. Musil, H. Neugebauer, J. Pisarek, C. Plett, P. Pracht, F. Pultar,
   J. Seibert, P. Shushkov, S. Spicher, M. Stahn, M. Steiner, T. Strunk,
   J. Stückrath, T. Rose, and J. Unsleber
   
 * started run on 2023/12/24 at 05:29:04.188     

           -------------------------------------------------
          |                Calculation Setup                |
           -------------------------------------------------

          program call               : xtb gau_xtb.xyz --chrg 0 --uhf 0 --grad
          hostname                   : node35
          coordinate file            : gau_xtb.xyz
          omp threads                :                    12

   ID    Z sym.   atoms
    1    1 H      1, 14-24, 30-34, 43-55, 65-74, 83-93, 99-105, 113-121,
                  127-133, 145-155, 164-176, 185-197, 206-214, 224-233,
                  245-254, 284-302, 304, 305, 307, 308, 310, 311, 313, 314,
                  316, 317, 319, 320
    2    7 N      2, 25, 35, 56, 64, 75, 94, 106, 122, 134, 156, 177, 198,
                  215, 223, 234, 261, 265, 269
    3    6 C      3, 4, 6-12, 26, 27, 29, 36, 37, 39-42, 57, 58, 60-62, 76,
                  77, 79-82, 95, 96, 98, 107, 108, 110-112, 123, 124, 126,
                  135, 136, 138-144, 157, 158, 160-163, 178, 179, 181-184,
                  199, 200, 202, 203, 205, 216, 217, 219-221, 235, 236,
                  238-244, 255-260, 262-264, 266, 268, 270, 272-278, 280,
                  282, 283
    4    8 O      5, 13, 28, 38, 59, 63, 78, 97, 109, 125, 137, 159, 180,
                  201, 218, 222, 237, 267, 271, 279, 281, 303, 306, 309, 312,
                  315, 318
    5   16 S      204

molecular fragmentation (1/2 indicates fragments):
111111111111111111111112222222222222222222222222222222222222222222222222
222222222222222222222222222222222222222222222222222222222222222222222222
222222222222222222222222222222222222222222222222222222222222222222222222
222222222222222222222222222222222222222222222222222222222222222222222222
22222222222222222222222222222222
# atoms in fragment 1/2:    23   297
 fragment masses (1/2) :      165.19     1962.44
CMA distance (Bohr)    :  16.555
constraining FC (au)   :  0.0500

           -------------------------------------------------
          |                 G F N 2 - x T B                 |
           -------------------------------------------------

        Reference                      10.1021/acs.jctc.8b01176
      * Hamiltonian:
        H0-scaling (s, p, d)           1.850000    2.230000    2.230000
        zeta-weighting                 0.500000
      * Dispersion:
        s8                             2.700000
        a1                             0.520000
        a2                             5.000000
        s9                             5.000000
      * Repulsion:
        kExp                           1.500000    1.000000
        rExp                           1.000000
      * Coulomb:
        alpha                          2.000000
        third order                    shell-resolved
        anisotropic                    true
        a3                             3.000000
        a5                             4.000000
        cn-shift                       1.200000
        cn-exp                         4.000000
        max-rad                        5.000000


          ...................................................
          :                      SETUP                      :
          :.................................................:
          :  # basis functions                 773          :
          :  # atomic orbitals                 772          :
          :  # shells                          470          :
          :  # electrons                       842          :
          :  max. iterations                   250          :
          :  Hamiltonian                  GFN2-xTB          :
          :  restarted?                      false          :
          :  GBSA solvation                  false          :
          :  PC potential                    false          :
          :  electronic temp.          300.0000000     K    :
          :  accuracy                    1.0000000          :
          :  -> integral cutoff          0.2500000E+02      :
          :  -> integral neglect         0.1000000E-07      :
          :  -> SCF convergence          0.1000000E-05 Eh   :
          :  -> wf. convergence          0.1000000E-03 e    :
          :  Broyden damping             0.4000000          :
          ...................................................

 iter      E             dE          RMSdq      gap      omega  full diag
   1   -479.9345268 -0.479935E+03  0.406E+00    1.93       0.0  T
   2   -480.7532495 -0.818723E+00  0.218E+00    0.26       1.0  T
   3   -480.7858301 -0.325806E-01  0.124E+00    0.50       1.0  T
   4   -478.7105415  0.207529E+01  0.193E+00    0.03       1.0  T
   5   -480.8513249 -0.214078E+01  0.305E-01    0.70       1.0  T
   6   -480.8663720 -0.150471E-01  0.168E-01    0.71       1.0  T
   7   -480.8671201 -0.748117E-03  0.136E-01    0.73       1.0  T
   8   -480.8684825 -0.136244E-02  0.116E-01    0.72       1.0  T
   9   -480.8691859 -0.703350E-03  0.104E-01    0.69       1.0  T
  10   -480.8695186 -0.332698E-03  0.957E-02    0.65       1.0  T
  11   -480.8699979 -0.479350E-03  0.837E-02    0.55       1.0  T
  12   -480.8705252 -0.527274E-03  0.696E-02    0.43       1.0  T
  13   -480.8711329 -0.607655E-03  0.523E-02    0.30       1.0  T
  14   -480.8713091 -0.176221E-03  0.473E-02    0.28       1.0  T
  15   -480.8713202 -0.110791E-04  0.470E-02    0.28       1.0  T
  16   -480.8439720  0.273482E-01  0.212E-01    0.10       1.0  T
  17   -480.8491617 -0.518969E-02  0.192E-01    0.10       1.0  T
  18   -480.8459170  0.324462E-02  0.204E-01    0.10       1.0  T
  19   -480.8694462 -0.235291E-01  0.673E-02    0.15       1.0  T
  20   -480.5929031  0.276543E+00  0.667E-01    0.02       1.0  T
  21   -480.8144308 -0.221528E+00  0.305E-01    0.08       1.0  T
  22   -480.8722453 -0.578145E-01  0.105E-02    0.21       1.0  T
  23   -480.8707926  0.145272E-02  0.493E-02    0.15       1.0  T
  24   -480.8722710 -0.147837E-02  0.721E-03    0.21       1.0  T
  25   -480.8722591  0.118388E-04  0.803E-03    0.19       1.0  T
  26   -480.8722874 -0.283008E-04  0.428E-03    0.20       1.3  T
  27   -480.8722906 -0.319097E-05  0.361E-03    0.20       1.5  T
  28   -480.8722918 -0.117729E-05  0.332E-03    0.20       1.7  T
  29   -480.8722918 -0.132242E-07  0.330E-03    0.20       1.7  T
  30   -480.8722930 -0.119994E-05  0.298E-03    0.20       1.9  T
  31   -480.8722944 -0.137986E-05  0.256E-03    0.20       2.2  T
  32   -480.8722956 -0.117907E-05  0.215E-03    0.20       2.6  T
  33   -480.8722970 -0.146199E-05  0.150E-03    0.20       3.7  T
  34   -480.8722978 -0.773014E-06  0.990E-04    0.20       5.6  T
  35   -480.8722983 -0.480956E-06  0.440E-04    0.20      12.7  T

   *** convergence criteria satisfied after 35 iterations ***

         #    Occupation            Energy/Eh            Energy/eV
      -------------------------------------------------------------
         1        2.0000           -0.7499876             -20.4082
       ...           ...                  ...                  ...
       415        2.0000           -0.3506164              -9.5408
       416        2.0000           -0.3467159              -9.4346
       417        2.0000           -0.3454552              -9.4003
       418        2.0000           -0.3442553              -9.3677
       419        2.0000           -0.3244975              -8.8300
       420        1.9853           -0.3124679              -8.5027
       421        1.9513           -0.3113142              -8.4713 (HOMO)
       422        0.0320           -0.3038945              -8.2694 (LUMO)
       423        0.0272           -0.3037380              -8.2651
       424        0.0043           -0.3019706              -8.2170
       425                         -0.2805170              -7.6333
       426                         -0.2772148              -7.5434
       ...                                ...                  ...
       772                          0.8271026              22.5066
      -------------------------------------------------------------
                  HL-Gap            0.0074197 Eh            0.2019 eV
             Fermi-level           -0.3078085 Eh           -8.3759 eV

 SCC (total)                   0 d,  0 h,  0 min, 16.418 sec
 SCC setup                      ...        0 min,  0.012 sec (  0.076%)
 Dispersion                     ...        0 min,  0.036 sec (  0.221%)
 classical contributions        ...        0 min,  0.005 sec (  0.029%)
 integral evaluation            ...        0 min,  0.102 sec (  0.620%)
 iterations                     ...        0 min, 15.006 sec ( 91.402%)
 molecular gradient             ...        0 min,  1.220 sec (  7.431%)
 printout                       ...        0 min,  0.036 sec (  0.220%)

         :::::::::::::::::::::::::::::::::::::::::::::::::::::
         ::                     SUMMARY                     ::
         :::::::::::::::::::::::::::::::::::::::::::::::::::::
         :: total energy            -473.177631870317 Eh    ::
         :: gradient norm              1.037670761114 Eh/a0 ::
         :: HOMO-LUMO gap              0.201899993517 eV    ::
         ::.................................................::
         :: SCC energy              -480.872298301653 Eh    ::
         :: -> isotropic ES            0.941597570022 Eh    ::
         :: -> anisotropic ES          0.025302924592 Eh    ::
         :: -> anisotropic XC          0.134824125947 Eh    ::
         :: -> dispersion             -0.413322371117 Eh    ::
         :: repulsion energy           7.650266250563 Eh    ::
         :: add. restraining           0.000000000000 Eh    ::
         :: total charge               0.000000000000 e     ::
         :::::::::::::::::::::::::::::::::::::::::::::::::::::

           -------------------------------------------------
          |                Property Printout                |
           -------------------------------------------------

    * Orbital Energies and Occupations

         #    Occupation            Energy/Eh            Energy/eV
      -------------------------------------------------------------
         1        2.0000           -0.7499876             -20.4082
       ...           ...                  ...                  ...
       409        2.0000           -0.3719346             -10.1209
       410        2.0000           -0.3680251             -10.0145
       411        2.0000           -0.3638710              -9.9014
       412        2.0000           -0.3582996              -9.7498
       413        2.0000           -0.3558071              -9.6820
       414        2.0000           -0.3514707              -9.5640
       415        2.0000           -0.3506164              -9.5408
       416        2.0000           -0.3467159              -9.4346
       417        2.0000           -0.3454552              -9.4003
       418        2.0000           -0.3442553              -9.3677
       419        2.0000           -0.3244975              -8.8300
       420        1.9853           -0.3124679              -8.5027
       421        1.9513           -0.3113142              -8.4713 (HOMO)
       422        0.0320           -0.3038945              -8.2694 (LUMO)
       423        0.0272           -0.3037380              -8.2651
       424        0.0043           -0.3019706              -8.2170
       425                         -0.2805170              -7.6333
       426                         -0.2772148              -7.5434
       427                         -0.2748149              -7.4781
       428                         -0.2695373              -7.3345
       429                         -0.2663569              -7.2479
       430                         -0.2427071              -6.6044
       431                         -0.2409684              -6.5571
       432                         -0.2321477              -6.3171
       ...                                ...                  ...
       772                          0.8271026              22.5066
      -------------------------------------------------------------
                  HL-Gap            0.0074197 Eh            0.2019 eV
             Fermi-level           -0.3078085 Eh           -8.3759 eV

     #   Z          covCN         q      C6AA      α(0)
     1   1 H        0.862     0.153     1.379     1.839
     2   7 N        2.630    -0.339    28.741     7.962
     3   6 C        3.790     0.030    20.084     6.382
     4   6 C        2.765     0.197    23.800     7.989
     5   8 O        0.856    -0.334    20.413     6.058
     6   6 C        3.821    -0.094    22.276     6.717
     7   6 C        2.971    -0.002    28.071     8.691
     8   6 C        2.947    -0.042    29.044     8.839
     9   6 C        2.948    -0.043    29.072     8.843
    10   6 C        2.933    -0.063    29.571     8.918
    11   6 C        2.929    -0.075    29.883     8.965
    12   6 C        2.858     0.135    25.040     8.202
    13   8 O        1.646    -0.430    21.438     6.250
    14   1 H        0.857     0.130     1.545     1.947
    15   1 H        0.929     0.077     2.010     2.217
    16   1 H        0.930     0.079     1.987     2.204
    17   1 H        0.930     0.059     2.205     2.322
    18   1 H        0.929     0.048     2.348     2.396
    19   1 H        0.930     0.052     2.293     2.368
    20   1 H        0.930     0.065     2.143     2.289
    21   1 H        0.929     0.044     2.395     2.420
    22   1 H        0.794     0.302     0.716     1.330
    23   1 H        0.928     0.046     2.371     2.408
    24   1 H        0.862     0.136     1.502     1.920
    25   7 N        2.631    -0.379    29.794     8.107
    26   6 C        3.785     0.021    20.232     6.407
    27   6 C        2.752     0.252    22.768     7.813
    28   8 O        0.859    -0.502    23.832     6.545
    29   6 C        3.769    -0.144    23.318     6.882
    30   1 H        0.860     0.172     1.264     1.761
    31   1 H        0.930     0.062     2.173     2.305
    32   1 H        0.930     0.080     1.983     2.202
    33   1 H        0.930     0.055     2.256     2.349
    34   1 H        0.930     0.060     2.201     2.320
    35   7 N        2.682    -0.173    24.747     7.388
    36   6 C        3.792     0.006    20.479     6.445
    37   6 C        2.759     0.208    23.590     7.954
    38   8 O        0.856    -0.322    20.191     6.024
    39   6 C        3.867    -0.025    20.967     6.511
    40   6 C        3.828    -0.080    22.012     6.676
    41   6 C        3.780    -0.130    23.023     6.836
    42   6 C        3.776    -0.130    23.029     6.837
    43   1 H        0.858     0.190     1.156     1.685
    44   1 H        0.929     0.107     1.719     2.050
    45   1 H        0.930     0.062     2.179     2.308
    46   1 H        0.930     0.057     2.231     2.335
    47   1 H        0.930     0.065     2.142     2.289
    48   1 H        0.929     0.060     2.194     2.316
    49   1 H        0.929     0.040     2.446     2.445
    50   1 H        0.929     0.048     2.339     2.392
    51   1 H        0.929     0.045     2.388     2.416
    52   1 H        0.929     0.060     2.202     2.320
    53   1 H        0.929     0.045     2.381     2.413
    54   1 H        0.928     0.049     2.338     2.391
    55   1 H        0.862     0.148     1.417     1.864
    56   7 N        2.635    -0.337    28.682     7.954
    57   6 C        3.785     0.033    20.040     6.376
    58   6 C        2.762     0.185    24.032     8.028
    59   8 O        0.856    -0.363    20.954     6.137
    60   6 C        3.809    -0.092    22.255     6.715
    61   6 C        3.835    -0.100    22.385     6.731
    62   6 C        2.749     0.295    22.001     7.681
    63   8 O        0.863    -0.484    23.423     6.489
    64   7 N        2.651    -0.292    27.527     7.792
    65   1 H        0.858     0.143     1.452     1.888
    66   1 H        0.929     0.080     1.976     2.198
    67   1 H        0.929     0.085     1.931     2.173
    68   1 H        0.929     0.063     2.163     2.300
    69   1 H        0.929     0.086     1.914     2.163
    70   1 H        0.929     0.072     2.065     2.247
    71   1 H        0.857     0.194     1.137     1.670
    72   1 H        0.860     0.217     1.023     1.585
    73   1 H        0.928     0.046     2.367     2.406
    74   1 H        0.862     0.146     1.428     1.872
    75   7 N        2.633    -0.352    29.060     8.006
    76   6 C        3.802     0.021    20.223     6.403
    77   6 C        2.753     0.248    22.830     7.824
    78   8 O        0.858    -0.482    23.382     6.483
    79   6 C        3.865    -0.027    21.018     6.519
    80   6 C        3.819    -0.080    22.019     6.678
    81   6 C        3.776    -0.135    23.113     6.850
    82   6 C        3.769    -0.129    23.004     6.835
    83   1 H        0.858     0.124     1.593     1.977
    84   1 H        0.930     0.070     2.085     2.258
    85   1 H        0.930     0.046     2.366     2.405
    86   1 H        0.930     0.049     2.338     2.391
    87   1 H        0.930     0.045     2.381     2.413
    88   1 H        0.930     0.049     2.334     2.389
    89   1 H        0.930     0.055     2.253     2.347
    90   1 H        0.930     0.055     2.259     2.350
    91   1 H        0.929     0.047     2.352     2.398
    92   1 H        0.929     0.045     2.382     2.413
    93   1 H        0.930     0.043     2.407     2.426
    94   7 N        2.688    -0.188    25.072     7.437
    95   6 C        3.797     0.031    20.050     6.376
    96   6 C        2.764     0.213    23.488     7.937
    97   8 O        0.856    -0.358    20.858     6.123
    98   6 C        3.774    -0.146    23.356     6.886
    99   1 H        0.858     0.228     0.976     1.548
   100   1 H        0.930     0.097     1.813     2.105
   101   1 H        0.929     0.074     2.046     2.237
   102   1 H        0.929     0.094     1.842     2.122
   103   1 H        0.929     0.073     2.057     2.243
   104   1 H        0.928     0.048     2.342     2.393
   105   1 H        0.862     0.134     1.514     1.927
   106   7 N        2.633    -0.368    29.491     8.065
   107   6 C        3.798     0.017    20.298     6.415
   108   6 C        2.759     0.250    22.803     7.820
   109   8 O        0.859    -0.479    23.331     6.476
   110   6 C        3.842    -0.028    21.042     6.525
   111   6 C        3.750    -0.151    23.486     6.912
   112   6 C        3.774    -0.132    23.059     6.842
   113   1 H        0.859     0.172     1.261     1.759
   114   1 H        0.929     0.066     2.124     2.279
   115   1 H        0.930     0.045     2.383     2.414
   116   1 H        0.930     0.057     2.237     2.339
   117   1 H        0.930     0.049     2.327     2.385
   118   1 H        0.930     0.060     2.202     2.320
   119   1 H        0.929     0.053     2.287     2.365
   120   1 H        0.929     0.068     2.103     2.268
   121   1 H        0.929     0.038     2.473     2.459
   122   7 N        2.692    -0.177    24.834     7.401
   123   6 C        3.804     0.035    19.989     6.365
   124   6 C        2.772     0.201    23.722     7.977
   125   8 O        0.856    -0.321    20.172     6.022
   126   6 C        3.784    -0.136    23.139     6.852
   127   1 H        0.858     0.210     1.056     1.610
   128   1 H        0.929     0.093     1.851     2.127
   129   1 H        0.929     0.061     2.189     2.314
   130   1 H        0.929     0.062     2.179     2.308
   131   1 H        0.929     0.074     2.039     2.233
   132   1 H        0.929     0.050     2.323     2.383
   133   1 H        0.862     0.138     1.487     1.910
   134   7 N        2.633    -0.350    29.026     8.001
   135   6 C        3.786     0.031    20.066     6.380
   136   6 C        2.763     0.189    23.945     8.014
   137   8 O        0.856    -0.356    20.818     6.117
   138   6 C        3.824    -0.086    22.129     6.694
   139   6 C        2.981     0.024    27.470     8.597
   140   6 C        2.949    -0.043    29.072     8.843
   141   6 C        2.970    -0.049    29.210     8.865
   142   6 C        2.942    -0.047    29.171     8.858
   143   6 C        2.932    -0.039    28.967     8.827
   144   6 C        2.935    -0.051    29.272     8.873
   145   1 H        0.859     0.194     1.137     1.670
   146   1 H        0.929     0.066     2.125     2.279
   147   1 H        0.930     0.085     1.932     2.174
   148   1 H        0.930     0.068     2.104     2.268
   149   1 H        0.929     0.049     2.326     2.385
   150   1 H        0.929     0.037     2.490     2.467
   151   1 H        0.929     0.039     2.455     2.450
   152   1 H        0.929     0.023     2.695     2.567
   153   1 H        0.930     0.054     2.268     2.355
   154   1 H        0.928     0.053     2.287     2.365
   155   1 H        0.862     0.143     1.448     1.885
   156   7 N        2.635    -0.339    28.737     7.962
   157   6 C        3.785     0.029    20.107     6.387
   158   6 C        2.766     0.191    23.909     8.008
   159   8 O        0.856    -0.356    20.821     6.118
   160   6 C        3.834    -0.078    21.956     6.667
   161   6 C        3.857    -0.024    20.963     6.512
   162   6 C        3.773    -0.135    23.125     6.852
   163   6 C        3.769    -0.133    23.086     6.847
   164   1 H        0.859     0.140     1.468     1.898
   165   1 H        0.929     0.070     2.083     2.257
   166   1 H        0.929     0.068     2.109     2.271
   167   1 H        0.929     0.049     2.335     2.389
   168   1 H        0.930     0.052     2.297     2.370
   169   1 H        0.930     0.058     2.227     2.333
   170   1 H        0.930     0.044     2.399     2.422
   171   1 H        0.930     0.042     2.416     2.431
   172   1 H        0.930     0.041     2.433     2.439
   173   1 H        0.930     0.051     2.309     2.376
   174   1 H        0.930     0.045     2.385     2.415
   175   1 H        0.928     0.046     2.368     2.406
   176   1 H        0.862     0.149     1.408     1.859
   177   7 N        2.631    -0.340    28.755     7.964
   178   6 C        3.792     0.026    20.152     6.393
   179   6 C        2.763     0.193    23.873     8.002
   180   8 O        0.856    -0.366    21.008     6.145
   181   6 C        3.857    -0.029    21.052     6.525
   182   6 C        3.816    -0.085    22.109     6.692
   183   6 C        3.775    -0.137    23.171     6.859
   184   6 C        3.765    -0.135    23.143     6.857
   185   1 H        0.858     0.139     1.482     1.907
   186   1 H        0.929     0.066     2.129     2.282
   187   1 H        0.930     0.052     2.291     2.367
   188   1 H        0.930     0.058     2.223     2.331
   189   1 H        0.929     0.046     2.372     2.408
   190   1 H        0.930     0.065     2.141     2.288
   191   1 H        0.930     0.040     2.447     2.446
   192   1 H        0.930     0.058     2.226     2.333
   193   1 H        0.930     0.052     2.292     2.367
   194   1 H        0.930     0.050     2.325     2.384
   195   1 H        0.930     0.046     2.369     2.407
   196   1 H        0.928     0.039     2.464     2.454
   197   1 H        0.862     0.148     1.414     1.863
   198   7 N        2.630    -0.350    29.016     8.000
   199   6 C        3.793     0.021    20.226     6.405
   200   6 C        2.753     0.249    22.823     7.823
   201   8 O        0.859    -0.459    22.902     6.416
   202   6 C        3.852    -0.072    21.841     6.647
   203   6 C        3.810    -0.009    20.724     6.480
   204  16 S        1.978    -0.204   149.729    20.595
   205   6 C        3.757    -0.076    22.006     6.688
   206   1 H        0.858     0.124     1.591     1.976
   207   1 H        0.930     0.068     2.104     2.268
   208   1 H        0.929     0.051     2.311     2.377
   209   1 H        0.929     0.073     2.052     2.240
   210   1 H        0.929     0.053     2.284     2.363
   211   1 H        0.929     0.037     2.482     2.464
   212   1 H        0.930     0.065     2.135     2.285
   213   1 H        0.930     0.054     2.268     2.355
   214   1 H        0.930     0.062     2.174     2.306
   215   7 N        2.686    -0.190    25.128     7.445
   216   6 C        3.797     0.026    20.144     6.391
   217   6 C        2.766     0.197    23.805     7.990
   218   8 O        0.856    -0.314    20.037     6.001
   219   6 C        3.819    -0.073    21.883     6.657
   220   6 C        3.817    -0.111    22.603     6.766
   221   6 C        2.744     0.278    22.298     7.732
   222   8 O        0.859    -0.461    22.935     6.421
   223   7 N        2.638    -0.256    26.643     7.666
   224   1 H        0.858     0.218     1.019     1.581
   225   1 H        0.929     0.113     1.671     2.021
   226   1 H        0.929     0.059     2.207     2.323
   227   1 H        0.929     0.083     1.946     2.181
   228   1 H        0.930     0.086     1.915     2.164
   229   1 H        0.930     0.075     2.027     2.226
   230   1 H        0.859     0.209     1.060     1.613
   231   1 H        0.860     0.211     1.051     1.606
   232   1 H        0.928     0.048     2.347     2.395
   233   1 H        0.862     0.139     1.480     1.905
   234   7 N        2.631    -0.347    28.943     7.990
   235   6 C        3.789     0.038    19.940     6.360
   236   6 C        2.764     0.186    24.016     8.026
   237   8 O        0.856    -0.364    20.972     6.140
   238   6 C        3.829    -0.090    22.198     6.704
   239   6 C        2.960     0.014    27.703     8.633
   240   6 C        2.926    -0.049    29.212     8.863
   241   6 C        2.917    -0.058    29.453     8.900
   242   6 C        2.912    -0.048    29.184     8.858
   243   6 C        2.909    -0.050    29.240     8.867
   244   6 C        2.915    -0.045    29.117     8.848
   245   1 H        0.857     0.173     1.253     1.754
   246   1 H        0.929     0.063     2.159     2.298
   247   1 H        0.930     0.100     1.782     2.088
   248   1 H        0.930     0.076     2.023     2.224
   249   1 H        0.930     0.045     2.384     2.414
   250   1 H        0.930     0.053     2.283     2.363
   251   1 H        0.930     0.037     2.494     2.469
   252   1 H        0.930     0.044     2.394     2.419
   253   1 H        0.929     0.042     2.428     2.436
   254   1 H        0.929     0.055     2.261     2.351
   255   6 C        2.919    -0.054    29.348     8.884
   256   6 C        2.916    -0.050    29.251     8.869
   257   6 C        2.907    -0.042    29.049     8.838
   258   6 C        3.112    -0.017    28.286     8.713
   259   6 C        3.046    -0.046    29.103     8.848
   260   6 C        3.096     0.034    27.121     8.535
   261   7 N        2.763    -0.149    24.227     7.310
   262   6 C        3.072     0.041    27.001     8.520
   263   6 C        2.904    -0.066    29.647     8.928
   264   6 C        3.812     0.037    19.939     6.356
   265   7 N        2.735    -0.120    23.610     7.217
   266   6 C        2.773     0.262    22.576     7.782
   267   8 O        0.860    -0.413    21.943     6.281
   268   6 C        3.749    -0.034    21.245     6.574
   269   7 N        2.732    -0.085    22.903     7.108
   270   6 C        2.767     0.259    22.641     7.793
   271   8 O        0.859    -0.452    22.738     6.393
   272   6 C        3.796     0.019    20.268     6.411
   273   6 C        3.808    -0.056    21.571     6.611
   274   6 C        3.702    -0.055    21.728     6.665
   275   6 C        2.977     0.009    27.809     8.650
   276   6 C        2.931    -0.041    29.025     8.835
   277   6 C        2.910    -0.062    29.547     8.913
   278   6 C        2.983     0.110    25.557     8.293
   279   8 O        1.711    -0.309    19.157     5.910
   280   6 C        3.792     0.213    17.269     5.918
   281   8 O        1.704    -0.294    18.880     5.867
   282   6 C        2.988     0.126    25.232     8.240
   283   6 C        2.915    -0.064    29.587     8.920
   284   1 H        0.923     0.065     2.146     2.291
   285   1 H        0.924     0.048     2.341     2.392
   286   1 H        0.924     0.056     2.251     2.346
   287   1 H        0.924     0.052     2.289     2.366
   288   1 H        0.925     0.089     1.884     2.146
   289   1 H        0.923     0.076     2.026     2.226
   290   1 H        0.924     0.092     1.861     2.133
   291   1 H        0.924     0.060     2.193     2.316
   292   1 H        0.925     0.061     2.183     2.310
   293   1 H        0.860     0.222     0.999     1.566
   294   1 H        0.926     0.048     2.341     2.393
   295   1 H        0.925     0.019     2.752     2.594
   296   1 H        0.926     0.078     2.004     2.214
   297   1 H        0.926     0.054     2.269     2.355
   298   1 H        0.926     0.069     2.095     2.264
   299   1 H        0.925     0.016     2.790     2.612
   300   1 H        0.923     0.074     2.047     2.237
   301   1 H        0.922     0.059     2.214     2.327
   302   1 H        0.926     0.031     2.567     2.505
   303   8 O        1.598    -0.575    24.611     6.695
   304   1 H        0.799     0.297     0.730     1.343
   305   1 H        0.799     0.299     0.725     1.338
   306   8 O        1.598    -0.603    25.267     6.784
   307   1 H        0.799     0.307     0.702     1.316
   308   1 H        0.799     0.288     0.760     1.370
   309   8 O        1.598    -0.578    24.682     6.705
   310   1 H        0.799     0.307     0.701     1.315
   311   1 H        0.799     0.262     0.850     1.449
   312   8 O        1.598    -0.555    24.136     6.630
   313   1 H        0.799     0.277     0.795     1.401
   314   1 H        0.799     0.277     0.795     1.401
   315   8 O        1.598    -0.580    24.731     6.712
   316   1 H        0.799     0.281     0.781     1.389
   317   1 H        0.799     0.289     0.757     1.367
   318   8 O        1.598    -0.558    24.206     6.640
   319   1 H        0.799     0.278     0.792     1.398
   320   1 H        0.799     0.279     0.788     1.395

 Mol. C6AA /au·bohr⁶  :     942910.127420
 Mol. C8AA /au·bohr⁸  :   21291807.931621
 Mol. α(0) /au        :       1473.941815


Wiberg/Mayer (AO) data.
largest (>0.10) Wiberg bond orders for each atom

 ---------------------------------------------------------------------------
     #   Z sym  total        # sym  WBO       # sym  WBO       # sym  WBO
 ---------------------------------------------------------------------------
     1   1 H    0.976 --     2 N    0.967
     2   7 N    3.036 --     3 C    1.005    14 H    0.967     1 H    0.967
     3   6 C    3.980 --     2 N    1.005     4 C    0.977    15 H    0.964
                             6 C    0.951
     4   6 C    3.907 --     5 O    1.919     3 C    0.977    23 H    0.949
     5   8 O    2.060 --     4 C    1.919
     6   6 C    3.991 --     7 C    0.992    17 H    0.977    16 H    0.963
                             3 C    0.951
     7   6 C    3.989 --     8 C    1.429     9 C    1.409     6 C    0.992
     8   6 C    3.995 --    10 C    1.446     7 C    1.429    18 H    0.970
     9   6 C    3.995 --    11 C    1.436     7 C    1.409    19 H    0.973
                            10 C    0.122
    10   6 C    3.991 --     8 C    1.446    12 C    1.368    20 H    0.972
                             9 C    0.122
    11   6 C    3.992 --     9 C    1.436    12 C    1.404    21 H    0.966
    12   6 C    3.938 --    11 C    1.404    10 C    1.368    13 O    1.039
    13   8 O    2.069 --    12 C    1.039    22 H    0.872
    14   1 H    0.983 --     2 N    0.967
    15   1 H    0.994 --     3 C    0.964
    16   1 H    0.993 --     6 C    0.963
    17   1 H    0.996 --     6 C    0.977
    18   1 H    0.998 --     8 C    0.970
    19   1 H    0.997 --     9 C    0.973
    20   1 H    0.996 --    10 C    0.972
    21   1 H    0.998 --    11 C    0.966
    22   1 H    0.908 --    13 O    0.872
    23   1 H    0.998 --     4 C    0.949
    24   1 H    0.982 --    25 N    0.971
    25   7 N    3.015 --    26 C    1.011    24 H    0.971    30 H    0.934
    26   6 C    3.982 --    25 N    1.011    29 C    0.987    31 H    0.966
                            27 C    0.931
    27   6 C    3.942 --    28 O    1.600    35 N    1.328    26 C    0.931
    28   8 O    1.927 --    27 C    1.600    35 N    0.189
    29   6 C    3.985 --    26 C    0.987    34 H    0.982    33 H    0.981
                            32 H    0.969
    30   1 H    0.971 --    25 N    0.934
    31   1 H    0.996 --    26 C    0.966
    32   1 H    0.994 --    29 C    0.969
    33   1 H    0.997 --    29 C    0.981
    34   1 H    0.996 --    29 C    0.982
    35   7 N    3.475 --    27 C    1.328    36 C    0.969    43 H    0.917
                            28 O    0.189
    36   6 C    3.957 --    37 C    0.970    35 N    0.969    39 C    0.942
                            44 H    0.933
    37   6 C    3.911 --    38 O    1.924    36 C    0.970    54 H    0.948
    38   8 O    2.086 --    37 C    1.924
    39   6 C    3.987 --    41 C    1.021    40 C    0.986    45 H    0.967
                            36 C    0.942
    40   6 C    3.991 --    42 C    1.029    39 C    0.986    47 H    0.972
                            46 H    0.972
    41   6 C    3.990 --    39 C    1.021    49 H    0.982    50 H    0.982
                            48 H    0.978
    42   6 C    3.990 --    40 C    1.029    51 H    0.984    52 H    0.980
                            53 H    0.977
    43   1 H    0.964 --    35 N    0.917
    44   1 H    0.988 --    36 C    0.933
    45   1 H    0.996 --    39 C    0.967
    46   1 H    0.996 --    40 C    0.972
    47   1 H    0.996 --    40 C    0.972
    48   1 H    0.996 --    41 C    0.978
    49   1 H    0.998 --    41 C    0.982
    50   1 H    0.998 --    41 C    0.982
    51   1 H    0.998 --    42 C    0.984
    52   1 H    0.996 --    42 C    0.980
    53   1 H    0.998 --    42 C    0.977
    54   1 H    0.998 --    37 C    0.948
    55   1 H    0.978 --    56 N    0.967
    56   7 N    3.049 --    57 C    1.015    55 H    0.967    65 H    0.959
    57   6 C    3.981 --    56 N    1.015    58 C    0.979    60 C    0.957
                            66 H    0.953
    58   6 C    3.880 --    59 O    1.845    57 C    0.979    73 H    0.950
    59   8 O    2.045 --    58 C    1.845
    60   6 C    3.984 --    61 C    0.984    68 H    0.973    67 H    0.964
                            57 C    0.957
    61   6 C    3.993 --    62 C    1.025    60 C    0.984    70 H    0.960
                            69 H    0.941
    62   6 C    3.959 --    63 O    1.626    64 N    1.282    61 C    1.025
    63   8 O    1.934 --    62 C    1.626    64 N    0.201
    64   7 N    3.389 --    62 C    1.282    71 H    0.917    72 H    0.900
                            63 O    0.201
    65   1 H    0.980 --    56 N    0.959
    66   1 H    0.993 --    57 C    0.953
    67   1 H    0.993 --    60 C    0.964
    68   1 H    0.996 --    60 C    0.973
    69   1 H    0.992 --    61 C    0.941
    70   1 H    0.995 --    61 C    0.960
    71   1 H    0.962 --    64 N    0.917
    72   1 H    0.953 --    64 N    0.900
    73   1 H    0.998 --    58 C    0.950
    74   1 H    0.978 --    75 N    0.969
    75   7 N    3.027 --    76 C    1.006    74 H    0.969    83 H    0.965
    76   6 C    3.974 --    75 N    1.006    79 C    0.976    84 H    0.959
                            77 C    0.933
    77   6 C    3.945 --    78 O    1.617    94 N    1.308    76 C    0.933
    78   8 O    1.957 --    77 C    1.617    94 N    0.196
    79   6 C    3.994 --    81 C    1.006    80 C    0.984    76 C    0.976
                            85 H    0.972
    80   6 C    3.995 --    82 C    1.019    79 C    0.984    86 H    0.981
                            87 H    0.978
    81   6 C    3.989 --    79 C    1.006    90 H    0.984    89 H    0.980
                            88 H    0.978
    82   6 C    3.991 --    80 C    1.019    93 H    0.987    92 H    0.984
                            91 H    0.981
    83   1 H    0.985 --    75 N    0.965
    84   1 H    0.995 --    76 C    0.959
    85   1 H    0.998 --    79 C    0.972
    86   1 H    0.998 --    80 C    0.981
    87   1 H    0.998 --    80 C    0.978
    88   1 H    0.997 --    81 C    0.978
    89   1 H    0.997 --    81 C    0.980
    90   1 H    0.997 --    81 C    0.984
    91   1 H    0.998 --    82 C    0.981
    92   1 H    0.997 --    82 C    0.984
    93   1 H    0.998 --    82 C    0.987
    94   7 N    3.458 --    77 C    1.308    95 C    0.975    99 H    0.877
                            78 O    0.196
    95   6 C    3.972 --    96 C    0.978    94 N    0.975    98 C    0.975
                           100 H    0.949
    96   6 C    3.884 --    97 O    1.849    95 C    0.978   104 H    0.946
    97   8 O    2.061 --    96 C    1.849
    98   6 C    3.974 --   103 H    0.981   101 H    0.976    95 C    0.975
                           102 H    0.973
    99   1 H    0.948 --    94 N    0.877
   100   1 H    0.990 --    95 C    0.949
   101   1 H    0.994 --    98 C    0.976
   102   1 H    0.991 --    98 C    0.973
   103   1 H    0.995 --    98 C    0.981
   104   1 H    0.998 --    96 C    0.946
   105   1 H    0.982 --   106 N    0.971
   106   7 N    3.026 --   107 C    1.011   105 H    0.971   113 H    0.937
   107   6 C    3.979 --   106 N    1.011   110 C    0.966   114 H    0.956
                           108 C    0.939
   108   6 C    3.942 --   109 O    1.607   122 N    1.302   107 C    0.939
   109   8 O    1.965 --   108 C    1.607   122 N    0.188
   110   6 C    3.994 --   112 C    1.025   115 H    0.981   111 C    0.977
                           107 C    0.966
   111   6 C    3.989 --   117 H    0.991   118 H    0.987   116 H    0.986
                           110 C    0.977
   112   6 C    3.989 --   110 C    1.025   121 H    0.981   120 H    0.972
                           119 H    0.971
   113   1 H    0.970 --   106 N    0.937
   114   1 H    0.995 --   107 C    0.956
   115   1 H    0.998 --   110 C    0.981
   116   1 H    0.997 --   111 C    0.986
   117   1 H    0.998 --   111 C    0.991
   118   1 H    0.996 --   111 C    0.987
   119   1 H    0.997 --   112 C    0.971
   120   1 H    0.995 --   112 C    0.972
   121   1 H    0.999 --   112 C    0.981
   122   7 N    3.459 --   108 C    1.302   123 C    0.977   127 H    0.897
                           109 O    0.188
   123   6 C    3.973 --   126 C    0.989   122 N    0.977   124 C    0.965
                           128 H    0.953
   124   6 C    3.916 --   125 O    1.922   123 C    0.965   132 H    0.951
   125   8 O    2.068 --   124 C    1.922
   126   6 C    3.985 --   123 C    0.989   129 H    0.978   130 H    0.978
                           131 H    0.976
   127   1 H    0.956 --   122 N    0.897
   128   1 H    0.991 --   123 C    0.953
   129   1 H    0.996 --   126 C    0.978
   130   1 H    0.996 --   126 C    0.978
   131   1 H    0.994 --   126 C    0.976
   132   1 H    0.997 --   124 C    0.951
   133   1 H    0.981 --   134 N    0.971
   134   7 N    3.023 --   135 C    1.021   133 H    0.971   145 H    0.914
   135   6 C    3.982 --   134 N    1.021   136 C    0.966   138 C    0.961
                           146 H    0.953
   136   6 C    3.896 --   137 O    1.895   135 C    0.966   154 H    0.949
   137   8 O    2.044 --   136 C    1.895
   138   6 C    3.989 --   139 C    0.998   148 H    0.963   135 C    0.961
                           147 H    0.960
   139   6 C    3.990 --   140 C    1.423   141 C    1.420   138 C    0.998
                           144 C    0.105
   140   6 C    3.995 --   142 C    1.457   139 C    1.423   149 H    0.966
   141   6 C    3.994 --   139 C    1.420   143 C    1.416   150 H    0.971
                           142 C    0.131
   142   6 C    3.994 --   140 C    1.457   144 C    1.399   151 H    0.978
                           141 C    0.131
   143   6 C    3.995 --   144 C    1.484   141 C    1.416   152 H    0.969
   144   6 C    3.994 --   143 C    1.484   142 C    1.399   153 H    0.973
                           139 C    0.105
   145   1 H    0.962 --   134 N    0.914
   146   1 H    0.992 --   135 C    0.953
   147   1 H    0.993 --   138 C    0.960
   148   1 H    0.995 --   138 C    0.963
   149   1 H    0.998 --   140 C    0.966
   150   1 H    0.999 --   141 C    0.971
   151   1 H    0.998 --   142 C    0.978
   152   1 H    0.999 --   143 C    0.969
   153   1 H    0.997 --   144 C    0.973
   154   1 H    0.996 --   136 C    0.949
   155   1 H    0.979 --   156 N    0.968
   156   7 N    3.033 --   157 C    1.018   155 H    0.968   164 H    0.963
   157   6 C    3.982 --   156 N    1.018   158 C    0.977   160 C    0.948
                           165 H    0.946
   158   6 C    3.904 --   159 O    1.888   157 C    0.977   175 H    0.949
   159   8 O    2.055 --   158 C    1.888
   160   6 C    3.988 --   161 C    1.004   167 H    0.976   166 H    0.967
                           157 C    0.948
   161   6 C    3.994 --   160 C    1.004   162 C    1.002   163 C    1.001
                           168 H    0.972
   162   6 C    3.991 --   161 C    1.002   169 H    0.987   170 H    0.986
                           171 H    0.983
   163   6 C    3.992 --   161 C    1.001   174 H    0.987   172 H    0.986
                           173 H    0.982
   164   1 H    0.980 --   156 N    0.963
   165   1 H    0.995 --   157 C    0.946
   166   1 H    0.995 --   160 C    0.967
   167   1 H    0.998 --   160 C    0.976
   168   1 H    0.997 --   161 C    0.972
   169   1 H    0.997 --   162 C    0.987
   170   1 H    0.998 --   162 C    0.986
   171   1 H    0.998 --   162 C    0.983
   172   1 H    0.998 --   163 C    0.986
   173   1 H    0.997 --   163 C    0.982
   174   1 H    0.998 --   163 C    0.987
   175   1 H    0.997 --   158 C    0.949
   176   1 H    0.977 --   177 N    0.966
   177   7 N    3.039 --   178 C    1.011   176 H    0.966   185 H    0.962
   178   6 C    3.978 --   177 N    1.011   179 C    0.974   186 H    0.956
                           181 C    0.949
   179   6 C    3.870 --   180 O    1.842   178 C    0.974   196 H    0.949
   180   8 O    2.037 --   179 C    1.842
   181   6 C    3.990 --   183 C    1.007   182 C    0.991   187 H    0.973
                           178 C    0.949
   182   6 C    3.992 --   184 C    1.012   181 C    0.991   189 H    0.980
                           188 H    0.977
   183   6 C    3.989 --   181 C    1.007   192 H    0.984   190 H    0.979
                           191 H    0.979
   184   6 C    3.989 --   182 C    1.012   195 H    0.989   194 H    0.985
                           193 H    0.984
   185   1 H    0.981 --   177 N    0.962
   186   1 H    0.995 --   178 C    0.956
   187   1 H    0.997 --   181 C    0.973
   188   1 H    0.997 --   182 C    0.977
   189   1 H    0.998 --   182 C    0.980
   190   1 H    0.996 --   183 C    0.979
   191   1 H    0.998 --   183 C    0.979
   192   1 H    0.997 --   183 C    0.984
   193   1 H    0.997 --   184 C    0.984
   194   1 H    0.997 --   184 C    0.985
   195   1 H    0.998 --   184 C    0.989
   196   1 H    0.998 --   179 C    0.949
   197   1 H    0.978 --   198 N    0.968
   198   7 N    3.024 --   199 C    1.007   197 H    0.968   206 H    0.965
   199   6 C    3.979 --   198 N    1.007   202 C    0.979   207 H    0.960
                           200 C    0.929
   200   6 C    3.950 --   201 O    1.638   215 N    1.297   199 C    0.929
   201   8 O    1.982 --   200 C    1.638   215 N    0.198
   202   6 C    3.992 --   203 C    1.006   199 C    0.979   209 H    0.971
                           208 H    0.970
   203   6 C    3.980 --   202 C    1.006   204 S    0.998   211 H    0.975
                           210 H    0.967
   204  16 S    2.072 --   205 C    0.999   203 C    0.998
   205   6 C    3.978 --   204 S    0.999   213 H    0.987   214 H    0.982
                           212 H    0.978
   206   1 H    0.985 --   198 N    0.965
   207   1 H    0.995 --   199 C    0.960
   208   1 H    0.997 --   202 C    0.970
   209   1 H    0.995 --   202 C    0.971
   210   1 H    0.997 --   203 C    0.967
   211   1 H    0.999 --   203 C    0.975
   212   1 H    0.996 --   205 C    0.978
   213   1 H    0.997 --   205 C    0.987
   214   1 H    0.996 --   205 C    0.982
   215   7 N    3.454 --   200 C    1.297   216 C    0.968   224 H    0.888
                           201 O    0.198
   216   6 C    3.965 --   219 C    0.975   217 C    0.974   215 N    0.968
                           225 H    0.948
   217   6 C    3.918 --   218 O    1.921   216 C    0.974   232 H    0.951
   218   8 O    2.068 --   217 C    1.921
   219   6 C    3.989 --   220 C    1.000   226 H    0.975   216 C    0.975
                           227 H    0.970
   220   6 C    3.994 --   219 C    1.000   221 C    0.974   229 H    0.959
                           228 H    0.953
   221   6 C    3.947 --   222 O    1.609   223 N    1.334   220 C    0.974
   222   8 O    1.997 --   221 C    1.609   223 N    0.194
   223   7 N    3.423 --   221 C    1.334   230 H    0.928   231 H    0.922
                           222 O    0.194
   224   1 H    0.952 --   215 N    0.888
   225   1 H    0.987 --   216 C    0.948
   226   1 H    0.996 --   219 C    0.975
   227   1 H    0.992 --   219 C    0.970
   228   1 H    0.993 --   220 C    0.953
   229   1 H    0.993 --   220 C    0.959
   230   1 H    0.956 --   223 N    0.928
   231   1 H    0.955 --   223 N    0.922
   232   1 H    0.998 --   217 C    0.951
   233   1 H    0.980 --   234 N    0.970
   234   7 N    3.041 --   235 C    1.008   233 H    0.970   245 H    0.931
   235   6 C    3.984 --   234 N    1.008   236 C    0.972   246 H    0.962
                           238 C    0.951
   236   6 C    3.900 --   237 O    1.887   235 C    0.972   254 H    0.952
   237   8 O    2.036 --   236 C    1.887
   238   6 C    3.987 --   239 C    1.013   248 H    0.971   247 H    0.952
                           235 C    0.951
   239   6 C    3.990 --   241 C    1.486   240 C    1.356   238 C    1.013
   240   6 C    3.995 --   242 C    1.489   239 C    1.356   249 H    0.975
                           243 C    0.123
   241   6 C    3.993 --   239 C    1.486   243 C    1.356   250 H    0.976
                           242 C    0.114
   242   6 C    3.995 --   240 C    1.489   244 C    1.387   251 H    0.976
                           241 C    0.114
   243   6 C    3.993 --   244 C    1.504   241 C    1.356   252 H    0.979
                           240 C    0.123
   244   6 C    3.995 --   243 C    1.504   242 C    1.387   253 H    0.973
   245   1 H    0.970 --   234 N    0.931
   246   1 H    0.995 --   235 C    0.962
   247   1 H    0.990 --   238 C    0.952
   248   1 H    0.994 --   238 C    0.971
   249   1 H    0.998 --   240 C    0.975
   250   1 H    0.997 --   241 C    0.976
   251   1 H    0.998 --   242 C    0.976
   252   1 H    0.998 --   243 C    0.979
   253   1 H    0.998 --   244 C    0.973
   254   1 H    0.997 --   236 C    0.952
   255   6 C    3.984 --   263 C    1.476   256 C    1.372   295 H    0.960
   256   6 C    3.989 --   257 C    1.504   255 C    1.372   299 H    0.968
   257   6 C    3.987 --   256 C    1.504   258 C    1.317   302 H    0.966
                           263 C    0.111
   258   6 C    3.983 --   257 C    1.317   262 C    1.237   259 C    1.226
   259   6 C    3.967 --   260 C    1.517   258 C    1.226   273 C    1.016
   260   6 C    3.959 --   259 C    1.517   261 N    1.218   264 C    0.994
   261   7 N    3.533 --   260 C    1.218   262 C    1.170   293 H    0.860
   262   6 C    3.957 --   263 C    1.349   258 C    1.237   261 N    1.170
   263   6 C    3.985 --   255 C    1.476   262 C    1.349   294 H    0.960
                           257 C    0.111
   264   6 C    3.967 --   260 C    0.994   275 C    0.965   265 N    0.959
                           300 H    0.940
   265   7 N    3.457 --   266 C    1.224   272 C    0.974   264 C    0.959
                           267 O    0.193
   266   6 C    3.960 --   267 O    1.696   265 N    1.224   268 C    0.966
   267   8 O    2.023 --   266 C    1.696   265 N    0.193
   268   6 C    3.967 --   269 N    0.994   266 C    0.966   290 H    0.946
                           289 H    0.940
   269   7 N    3.511 --   270 C    1.273   268 C    0.994   274 C    0.991
                           271 O    0.197
   270   6 C    3.957 --   271 O    1.637   269 N    1.273   272 C    0.951
   271   8 O    1.986 --   270 C    1.637   269 N    0.197
   272   6 C    3.968 --   273 C    0.978   265 N    0.974   270 C    0.951
                           301 H    0.926
   273   6 C    3.990 --   259 C    1.016   272 C    0.978   291 H    0.956
                           292 H    0.945
   274   6 C    3.961 --   269 N    0.991   287 H    0.976   286 H    0.976
                           288 H    0.971
   275   6 C    3.982 --   276 C    1.436   283 C    1.388   264 C    0.965
   276   6 C    3.984 --   275 C    1.436   277 C    1.398   296 H    0.961
                           282 C    0.101
   277   6 C    3.984 --   278 C    1.433   276 C    1.398   297 H    0.960
   278   6 C    3.918 --   277 C    1.433   282 C    1.301   279 O    0.990
   279   8 O    2.163 --   278 C    0.990   280 C    0.989
   280   6 C    3.913 --   279 O    0.989   285 H    0.964   281 O    0.956
                           284 H    0.954
   281   8 O    2.185 --   282 C    1.036   280 C    0.956
   282   6 C    3.931 --   283 C    1.413   278 C    1.301   281 O    1.036
                           276 C    0.101
   283   6 C    3.983 --   282 C    1.413   275 C    1.388   298 H    0.961
   284   1 H    0.996 --   280 C    0.954
   285   1 H    0.997 --   280 C    0.964
   286   1 H    0.997 --   274 C    0.976
   287   1 H    0.997 --   274 C    0.976
   288   1 H    0.992 --   274 C    0.971
   289   1 H    0.994 --   268 C    0.940
   290   1 H    0.991 --   268 C    0.946
   291   1 H    0.996 --   273 C    0.956
   292   1 H    0.995 --   273 C    0.945
   293   1 H    0.950 --   261 N    0.860
   294   1 H    0.997 --   263 C    0.960
   295   1 H    0.999 --   255 C    0.960
   296   1 H    0.994 --   276 C    0.961
   297   1 H    0.997 --   277 C    0.960
   298   1 H    0.995 --   283 C    0.961
   299   1 H    0.999 --   256 C    0.968
   300   1 H    0.991 --   264 C    0.940
   301   1 H    0.996 --   272 C    0.926
   302   1 H    0.999 --   257 C    0.966
   303   8 O    1.868 --   304 H    0.906   305 H    0.896
   304   1 H    0.911 --   303 O    0.906
   305   1 H    0.911 --   303 O    0.896
   306   8 O    1.831 --   308 H    0.912   307 H    0.872
   307   1 H    0.906 --   306 O    0.872
   308   1 H    0.917 --   306 O    0.912
   309   8 O    1.831 --   311 H    0.931   310 H    0.890
   310   1 H    0.906 --   309 O    0.890
   311   1 H    0.932 --   309 O    0.931
   312   8 O    1.846 --   314 H    0.922   313 H    0.922
   313   1 H    0.923 --   312 O    0.922
   314   1 H    0.923 --   312 O    0.922
   315   8 O    1.832 --   316 H    0.917   317 H    0.889
   316   1 H    0.921 --   315 O    0.917
   317   1 H    0.917 --   315 O    0.889
   318   8 O    1.845 --   319 H    0.922   320 H    0.921
   319   1 H    0.923 --   318 O    0.922
   320   1 H    0.922 --   318 O    0.921
 ---------------------------------------------------------------------------

Topologies differ in total number of bonds
Writing topology from bond orders to xtbtopo.mol

molecular dipole:
                 x           y           z       tot (Debye)
 q only:        0.835       0.695      -5.530
   full:        1.534       1.277      -7.160      18.893
molecular quadrupole (traceless):
                xx          xy          yy          xz          yz          zz
 q only:      194.380      70.304      74.264    -722.093    -609.999    -268.644
  q+dip:      297.723     198.192     125.243    -918.040    -762.621    -422.966
   full:      298.266     200.281     130.622    -918.619    -764.768    -428.888


           -------------------------------------------------
          | TOTAL ENERGY             -473.177631870317 Eh   |
          | GRADIENT NORM               1.037670761114 Eh/α |
          | HOMO-LUMO GAP               0.201899993517 eV   |
           -------------------------------------------------

------------------------------------------------------------------------
 * finished run on 2023/12/24 at 05:29:20.967     
------------------------------------------------------------------------
 total:
 * wall-time:     0 d,  0 h,  0 min, 16.778 sec
 *  cpu-time:     0 d,  0 h,  3 min, 26.727 sec
 * ratio c/w:    12.321 speedup
 SCF:
 * wall-time:     0 d,  0 h,  0 min, 16.431 sec
 *  cpu-time:     0 d,  0 h,  3 min, 23.534 sec
 * ratio c/w:    12.387 speedup

