      -----------------------------------------------------------      
     |                   =====================                   |     
     |                           x T B                           |     
     |                   =====================                   |     
     |                         S. Grimme                         |     
     |          Mulliken Center for Theoretical Chemistry        |     
     |                    University of Bonn                     |     
      -----------------------------------------------------------      

   * xtb version 6.6.0 (2ccbbd7) compiled by 'conda@6fe65c42fc39' on 2023-02-10

   xtb is free software: you can redistribute it and/or modify it under
   the terms of the GNU Lesser General Public License as published by
   the Free Software Foundation, either version 3 of the License, or
   (at your option) any later version.
   
   xtb is distributed in the hope that it will be useful,
   but WITHOUT ANY WARRANTY; without even the implied warranty of
   MERCHANTABILITY or FITNESS FOR A PARTICULAR PURPOSE.  See the
   GNU Lesser General Public License for more details.
   
   Cite this work as:
   * C. Bannwarth, E. Caldeweyher, S. Ehlert, A. Hansen, P. Pracht,
     J. Seibert, S. Spicher, S. Grimme, WIREs Comput. Mol. Sci., 2020, 11,
     e01493. DOI: 10.1002/wcms.1493
   
   for GFN2-xTB:
   * C. Bannwarth, S. Ehlert and S. Grimme., J. Chem. Theory Comput., 2019,
     15, 1652-1671. DOI: 10.1021/acs.jctc.8b01176
   for GFN1-xTB:
   * S. Grimme, C. Bannwarth, P. Shushkov, J. Chem. Theory Comput., 2017,
     13, 1989-2009. DOI: 10.1021/acs.jctc.7b00118
   for GFN0-xTB:
   * P. Pracht, E. Caldeweyher, S. Ehlert, S. Grimme, ChemRxiv, 2019, preprint.
     DOI: 10.26434/chemrxiv.8326202.v1
   for GFN-FF:
   * S. Spicher and S. Grimme, Angew. Chem. Int. Ed., 2020, 59, 15665-15673.
     DOI: 10.1002/anie.202004239
   
   for ALPB and GBSA implicit solvation:
   * S. Ehlert, M. Stahn, S. Spicher, S. Grimme, J. Chem. Theory Comput.,
     2021, 17, 4250-4261. DOI: 10.1021/acs.jctc.1c00471
   
   for DFT-D4:
   * E. Caldeweyher, C. Bannwarth and S. Grimme, J. Chem. Phys., 2017,
     147, 034112. DOI: 10.1063/1.4993215
   * E. Caldeweyher, S. Ehlert, A. Hansen, H. Neugebauer, S. Spicher,
     C. Bannwarth and S. Grimme, J. Chem. Phys., 2019, 150, 154122.
     DOI: 10.1063/1.5090222
   * E. Caldeweyher, J.-M. Mewes, S. Ehlert and S. Grimme, Phys. Chem. Chem. Phys.
     2020, 22, 8499-8512. DOI: 10.1039/D0CP00502A
   
   for sTDA-xTB:
   * S. Grimme and C. Bannwarth, J. Chem. Phys., 2016, 145, 054103.
     DOI: 10.1063/1.4959605
   
   in the mass-spec context:
   * V. Asgeirsson, C. Bauer and S. Grimme, Chem. Sci., 2017, 8, 4879.
     DOI: 10.1039/c7sc00601b
   * J. Koopman and S. Grimme, ACS Omega 2019, 4, 12, 15120-15133.
     DOI: 10.1021/acsomega.9b02011
   
   for metadynamics refer to:
   * S. Grimme, J. Chem. Theory Comput., 2019, 155, 2847-2862
     DOI: 10.1021/acs.jctc.9b00143
   
   for SPH calculations refer to:
   * S. Spicher and S. Grimme, J. Chem. Theory Comput., 2021, 17, 1701-1714
     DOI: 10.1021/acs.jctc.0c01306
   
   with help from (in alphabetical order)
   P. Atkinson, C. Bannwarth, F. Bohle, G. Brandenburg, E. Caldeweyher
   M. Checinski, S. Dohm, S. Ehlert, S. Ehrlich, I. Gerasimov, C. Hölzer
   A. Katbashev, J. Koopman, C. Lavigne, S. Lehtola, F. März, M. Müller,
   F. Musil, H. Neugebauer, J. Pisarek, C. Plett, P. Pracht, F. Pultar,
   J. Seibert, P. Shushkov, S. Spicher, M. Stahn, M. Steiner, T. Strunk,
   J. Stückrath, T. Rose, and J. Unsleber
   
 * started run on 2024/01/09 at 13:01:35.124     

           -------------------------------------------------
          |                Calculation Setup                |
           -------------------------------------------------

          program call               : xtb gau_xtb.xyz --chrg 1 --uhf 0 --grad
          hostname                   : node28
          coordinate file            : gau_xtb.xyz
          omp threads                :                    12

   ID    Z sym.   atoms
    1    6 C      1-4, 6-21, 23-26, 28, 29
    2    8 O      5, 22
    3    7 N      27
    4    1 H      30-59

           -------------------------------------------------
          |                 G F N 2 - x T B                 |
           -------------------------------------------------

        Reference                      10.1021/acs.jctc.8b01176
      * Hamiltonian:
        H0-scaling (s, p, d)           1.850000    2.230000    2.230000
        zeta-weighting                 0.500000
      * Dispersion:
        s8                             2.700000
        a1                             0.520000
        a2                             5.000000
        s9                             5.000000
      * Repulsion:
        kExp                           1.500000    1.000000
        rExp                           1.000000
      * Coulomb:
        alpha                          2.000000
        third order                    shell-resolved
        anisotropic                    true
        a3                             3.000000
        a5                             4.000000
        cn-shift                       1.200000
        cn-exp                         4.000000
        max-rad                        5.000000


          ...................................................
          :                      SETUP                      :
          :.................................................:
          :  # basis functions                 146          :
          :  # atomic orbitals                 146          :
          :  # shells                           88          :
          :  # electrons                       150          :
          :  max. iterations                   250          :
          :  Hamiltonian                  GFN2-xTB          :
          :  restarted?                      false          :
          :  GBSA solvation                  false          :
          :  PC potential                    false          :
          :  electronic temp.          300.0000000     K    :
          :  accuracy                    1.0000000          :
          :  -> integral cutoff          0.2500000E+02      :
          :  -> integral neglect         0.1000000E-07      :
          :  -> SCF convergence          0.1000000E-05 Eh   :
          :  -> wf. convergence          0.1000000E-03 e    :
          :  Broyden damping             0.4000000          :
          ...................................................

 iter      E             dE          RMSdq      gap      omega  full diag
   1    -82.7170845 -0.827171E+02  0.403E+00    3.36       0.0  T
   2    -82.8706535 -0.153569E+00  0.248E+00    3.24       1.0  T
   3    -82.8635735  0.707996E-02  0.106E+00    3.14       1.0  T
   4    -82.8641946 -0.621047E-03  0.521E-01    3.04       1.0  T
   5    -82.8800779 -0.158833E-01  0.134E-01    3.06       1.0  T
   6    -82.8805957 -0.517768E-03  0.640E-02    3.07       1.0  T
   7    -82.8806608 -0.651372E-04  0.253E-02    3.07       1.0  T
   8    -82.8806708 -0.100182E-04  0.103E-02    3.07       1.3  T
   9    -82.8806742 -0.343050E-05  0.379E-03    3.07       3.4  T
  10    -82.8806745 -0.240397E-06  0.166E-03    3.07       7.8  T
  11    -82.8806746 -0.732963E-07  0.628E-04    3.07      20.7  T
  12    -82.8806746 -0.685759E-08  0.276E-04    3.07      47.2  T

   *** convergence criteria satisfied after 12 iterations ***

         #    Occupation            Energy/Eh            Energy/eV
      -------------------------------------------------------------
         1        2.0000           -0.8752415             -23.8165
       ...           ...                  ...                  ...
        69        2.0000           -0.4758202             -12.9477
        70        2.0000           -0.4678349             -12.7304
        71        2.0000           -0.4636543             -12.6167
        72        2.0000           -0.4594032             -12.5010
        73        2.0000           -0.4574796             -12.4487
        74        2.0000           -0.4495454             -12.2328
        75        2.0000           -0.4307349             -11.7209 (HOMO)
        76                         -0.3178992              -8.6505 (LUMO)
        77                         -0.3112509              -8.4696
        78                         -0.2923020              -7.9539
        79                         -0.2830015              -7.7009
        80                         -0.2785411              -7.5795
       ...                                ...                  ...
       146                          0.6101863              16.6040
      -------------------------------------------------------------
                  HL-Gap            0.1128356 Eh            3.0704 eV
             Fermi-level           -0.3743170 Eh          -10.1857 eV

 SCC (total)                   0 d,  0 h,  0 min,  0.117 sec
 SCC setup                      ...        0 min,  0.001 sec (  0.526%)
 Dispersion                     ...        0 min,  0.002 sec (  1.963%)
 classical contributions        ...        0 min,  0.000 sec (  0.119%)
 integral evaluation            ...        0 min,  0.008 sec (  6.689%)
 iterations                     ...        0 min,  0.096 sec ( 82.178%)
 molecular gradient             ...        0 min,  0.009 sec (  7.945%)
 printout                       ...        0 min,  0.000 sec (  0.350%)

         :::::::::::::::::::::::::::::::::::::::::::::::::::::
         ::                     SUMMARY                     ::
         :::::::::::::::::::::::::::::::::::::::::::::::::::::
         :: total energy             -81.566626675814 Eh    ::
         :: gradient norm              0.046440452761 Eh/a0 ::
         :: HOMO-LUMO gap              3.070413922399 eV    ::
         ::.................................................::
         :: SCC energy               -82.880674564653 Eh    ::
         :: -> isotropic ES            0.128023783061 Eh    ::
         :: -> anisotropic ES         -0.000529466397 Eh    ::
         :: -> anisotropic XC          0.043761751781 Eh    ::
         :: -> dispersion             -0.063754484889 Eh    ::
         :: repulsion energy           1.313280482269 Eh    ::
         :: add. restraining           0.000000000000 Eh    ::
         :: total charge               1.000000000000 e     ::
         :::::::::::::::::::::::::::::::::::::::::::::::::::::

           -------------------------------------------------
          |                Property Printout                |
           -------------------------------------------------

    * Orbital Energies and Occupations

         #    Occupation            Energy/Eh            Energy/eV
      -------------------------------------------------------------
         1        2.0000           -0.8752415             -23.8165
       ...           ...                  ...                  ...
        63        2.0000           -0.5001134             -13.6088
        64        2.0000           -0.4941987             -13.4478
        65        2.0000           -0.4902680             -13.3409
        66        2.0000           -0.4887951             -13.3008
        67        2.0000           -0.4829071             -13.1406
        68        2.0000           -0.4805042             -13.0752
        69        2.0000           -0.4758202             -12.9477
        70        2.0000           -0.4678349             -12.7304
        71        2.0000           -0.4636543             -12.6167
        72        2.0000           -0.4594032             -12.5010
        73        2.0000           -0.4574796             -12.4487
        74        2.0000           -0.4495454             -12.2328
        75        2.0000           -0.4307349             -11.7209 (HOMO)
        76                         -0.3178992              -8.6505 (LUMO)
        77                         -0.3112509              -8.4696
        78                         -0.2923020              -7.9539
        79                         -0.2830015              -7.7009
        80                         -0.2785411              -7.5795
        81                         -0.2733884              -7.4393
        82                         -0.2551434              -6.9428
        83                         -0.2435009              -6.6260
        84                         -0.1804621              -4.9106
        85                         -0.1699843              -4.6255
        86                         -0.1617674              -4.4019
       ...                                ...                  ...
       146                          0.6101863              16.6040
      -------------------------------------------------------------
                  HL-Gap            0.1128356 Eh            3.0704 eV
             Fermi-level           -0.3743170 Eh          -10.1857 eV

     #   Z          covCN         q      C6AA      α(0)
     1   6 C        2.979     0.004    27.935     8.670
     2   6 C        2.924    -0.037    28.919     8.819
     3   6 C        2.912    -0.053    29.324     8.880
     4   6 C        2.846     0.141    24.918     8.181
     5   8 O        1.660    -0.408    21.005     6.187
     6   6 C        2.915    -0.063    29.572     8.917
     7   6 C        2.926    -0.034    28.845     8.808
     8   6 C        2.964    -0.015    28.385     8.739
     9   6 C        2.959     0.006    27.897     8.663
    10   6 C        3.802    -0.056    21.572     6.613
    11   6 C        3.750    -0.099    22.455     6.758
    12   6 C        2.982     0.010    27.779     8.646
    13   6 C        2.922    -0.035    28.862     8.810
    14   6 C        2.917    -0.030    28.744     8.792
    15   6 C        2.919    -0.031    28.772     8.796
    16   6 C        2.919    -0.029    28.729     8.790
    17   6 C        2.921    -0.034    28.853     8.809
    18   6 C        2.968     0.020    27.560     8.611
    19   6 C        2.923    -0.031    28.773     8.797
    20   6 C        2.916    -0.052    29.280     8.873
    21   6 C        2.848     0.122    25.322     8.247
    22   8 O        1.702    -0.318    19.317     5.934
    23   6 C        2.918    -0.056    29.404     8.892
    24   6 C        2.923    -0.029    28.731     8.790
    25   6 C        3.680     0.075    19.534     6.330
    26   6 C        3.736    -0.042    21.408     6.603
    27   7 N        3.572     0.056    20.254     6.684
    28   6 C        3.689    -0.097    22.562     6.799
    29   6 C        3.693    -0.099    22.575     6.798
    30   1 H        0.806     0.304     0.710     1.324
    31   1 H        0.925     0.027     2.627     2.534
    32   1 H        0.925     0.050     2.321     2.382
    33   1 H        0.859     0.234     0.950     1.527
    34   1 H        0.925     0.041     2.431     2.438
    35   1 H        0.925     0.039     2.468     2.457
    36   1 H        0.924     0.049     2.330     2.387
    37   1 H        0.924     0.041     2.439     2.442
    38   1 H        0.925     0.035     2.511     2.478
    39   1 H        0.925     0.042     2.420     2.433
    40   1 H        0.925     0.040     2.451     2.448
    41   1 H        0.925     0.028     2.608     2.526
    42   1 H        0.925     0.033     2.541     2.493
    43   1 H        0.925     0.034     2.531     2.488
    44   1 H        0.926     0.033     2.543     2.494
    45   1 H        0.925     0.027     2.626     2.534
    46   1 H        0.925     0.050     2.318     2.381
    47   1 H        0.925     0.039     2.464     2.455
    48   1 H        0.925     0.031     2.574     2.509
    49   1 H        0.926     0.049     2.332     2.388
    50   1 H        0.923     0.068     2.103     2.268
    51   1 H        0.924     0.052     2.297     2.370
    52   1 H        0.924     0.111     1.689     2.032
    53   1 H        0.925     0.100     1.784     2.089
    54   1 H        0.924     0.099     1.798     2.097
    55   1 H        0.925     0.134     1.505     1.919
    56   1 H        0.924     0.105     1.737     2.061
    57   1 H        0.924     0.109     1.709     2.044
    58   1 H        0.925     0.104     1.749     2.068
    59   1 H        0.924     0.107     1.726     2.055

 Mol. C6AA /au·bohr⁶  :      36522.425123
 Mol. C8AA /au·bohr⁸  :     872623.498087
 Mol. α(0) /au        :        301.353350


Wiberg/Mayer (AO) data.
largest (>0.10) Wiberg bond orders for each atom

 ---------------------------------------------------------------------------
     #   Z sym  total        # sym  WBO       # sym  WBO       # sym  WBO
 ---------------------------------------------------------------------------
     1   6 C    3.987 --     2 C    1.394     7 C    1.387     8 C    1.013
     2   6 C    3.989 --     3 C    1.452     1 C    1.394    31 H    0.970
                             6 C    0.107
     3   6 C    3.988 --     2 C    1.452     4 C    1.381    32 H    0.968
                             7 C    0.104
     4   6 C    3.940 --     3 C    1.381     6 C    1.376     5 O    1.045
     5   8 O    2.058 --     4 C    1.045    30 H    0.884
     6   6 C    3.989 --     7 C    1.459     4 C    1.376    34 H    0.967
                             2 C    0.107
     7   6 C    3.989 --     6 C    1.459     1 C    1.387    35 H    0.967
                             3 C    0.104
     8   6 C    3.981 --     9 C    1.768    18 C    1.024     1 C    1.013
     9   6 C    3.982 --     8 C    1.768    12 C    1.028    10 C    1.002
    10   6 C    3.994 --     9 C    1.002    11 C    1.001    37 H    0.974
                            36 H    0.958
    11   6 C    3.993 --    10 C    1.001    38 H    0.987    39 H    0.987
                            40 H    0.986
    12   6 C    3.988 --    17 C    1.393    13 C    1.389     9 C    1.028
                            15 C    0.109
    13   6 C    3.988 --    14 C    1.455    12 C    1.389    41 H    0.968
                            16 C    0.108
    14   6 C    3.991 --    13 C    1.455    15 C    1.428    42 H    0.970
                            17 C    0.110
    15   6 C    3.989 --    16 C    1.442    14 C    1.428    43 H    0.971
                            12 C    0.109
    16   6 C    3.992 --    17 C    1.444    15 C    1.442    44 H    0.970
                            13 C    0.108
    17   6 C    3.989 --    16 C    1.444    12 C    1.393    45 H    0.970
                            14 C    0.110
    18   6 C    3.984 --    24 C    1.402    19 C    1.371     8 C    1.024
    19   6 C    3.987 --    20 C    1.467    18 C    1.371    46 H    0.967
                            23 C    0.106
    20   6 C    3.987 --    19 C    1.467    21 C    1.372    47 H    0.968
                            24 C    0.104
    21   6 C    3.912 --    23 C    1.403    20 C    1.372    22 O    0.971
    22   8 O    2.123 --    25 C    0.987    21 C    0.971
    23   6 C    3.988 --    24 C    1.438    21 C    1.403    48 H    0.964
                            19 C    0.106
    24   6 C    3.987 --    23 C    1.438    18 C    1.402    49 H    0.968
                            20 C    0.104
    25   6 C    3.960 --    26 C    1.008    22 O    0.987    51 H    0.960
                            50 H    0.954
    26   6 C    3.923 --    25 C    1.008    52 H    0.966    53 H    0.966
                            27 N    0.925
    27   7 N    3.774 --    29 C    0.961    28 C    0.948    26 C    0.925
                            33 H    0.920
    28   6 C    3.904 --    54 H    0.977    56 H    0.975    55 H    0.964
                            27 N    0.948
    29   6 C    3.917 --    57 H    0.976    58 H    0.975    59 H    0.974
                            27 N    0.961
    30   1 H    0.907 --     5 O    0.884
    31   1 H    0.999 --     2 C    0.970
    32   1 H    0.997 --     3 C    0.968
    33   1 H    0.945 --    27 N    0.920
    34   1 H    0.998 --     6 C    0.967
    35   1 H    0.998 --     7 C    0.967
    36   1 H    0.996 --    10 C    0.958
    37   1 H    0.998 --    10 C    0.974
    38   1 H    0.999 --    11 C    0.987
    39   1 H    0.998 --    11 C    0.987
    40   1 H    0.998 --    11 C    0.986
    41   1 H    0.999 --    13 C    0.968
    42   1 H    0.998 --    14 C    0.970
    43   1 H    0.998 --    15 C    0.971
    44   1 H    0.999 --    16 C    0.970
    45   1 H    0.999 --    17 C    0.970
    46   1 H    0.997 --    19 C    0.967
    47   1 H    0.998 --    20 C    0.968
    48   1 H    0.998 --    23 C    0.964
    49   1 H    0.998 --    24 C    0.968
    50   1 H    0.995 --    25 C    0.954
    51   1 H    0.997 --    25 C    0.960
    52   1 H    0.988 --    26 C    0.966
    53   1 H    0.989 --    26 C    0.966
    54   1 H    0.990 --    28 C    0.977
    55   1 H    0.982 --    28 C    0.964
    56   1 H    0.989 --    28 C    0.975
    57   1 H    0.988 --    29 C    0.976
    58   1 H    0.989 --    29 C    0.975
    59   1 H    0.989 --    29 C    0.974
 ---------------------------------------------------------------------------

Topologies differ in total number of bonds
Writing topology from bond orders to xtbtopo.mol

molecular dipole:
                 x           y           z       tot (Debye)
 q only:       93.724     -61.861    -168.643
   full:       93.518     -62.034    -168.411     514.390
molecular quadrupole (traceless):
                xx          xy          yy          xz          yz          zz
 q only:    -7353.818   -8710.173  -14804.715  -23698.291   15636.801   22158.533
  q+dip:    -7356.737   -8722.005  -14724.940  -23610.582   15661.872   22081.677
   full:    -7358.338   -8720.358  -14726.013  -23610.747   15661.289   22084.351


           -------------------------------------------------
          | TOTAL ENERGY              -81.566626675814 Eh   |
          | GRADIENT NORM               0.046440452761 Eh/α |
          | HOMO-LUMO GAP               3.070413922399 eV   |
           -------------------------------------------------

------------------------------------------------------------------------
 * finished run on 2024/01/09 at 13:01:35.511     
------------------------------------------------------------------------
 total:
 * wall-time:     0 d,  0 h,  0 min,  0.386 sec
 *  cpu-time:     0 d,  0 h,  0 min,  7.223 sec
 * ratio c/w:    18.709 speedup
 SCF:
 * wall-time:     0 d,  0 h,  0 min,  0.118 sec
 *  cpu-time:     0 d,  0 h,  0 min,  2.570 sec
 * ratio c/w:    21.790 speedup

