      -----------------------------------------------------------      
     |                   =====================                   |     
     |                           x T B                           |     
     |                   =====================                   |     
     |                         S. Grimme                         |     
     |          Mulliken Center for Theoretical Chemistry        |     
     |                    University of Bonn                     |     
      -----------------------------------------------------------      

   * xtb version 6.6.0 (2ccbbd7) compiled by 'conda@6fe65c42fc39' on 2023-02-10

   xtb is free software: you can redistribute it and/or modify it under
   the terms of the GNU Lesser General Public License as published by
   the Free Software Foundation, either version 3 of the License, or
   (at your option) any later version.
   
   xtb is distributed in the hope that it will be useful,
   but WITHOUT ANY WARRANTY; without even the implied warranty of
   MERCHANTABILITY or FITNESS FOR A PARTICULAR PURPOSE.  See the
   GNU Lesser General Public License for more details.
   
   Cite this work as:
   * C. Bannwarth, E. Caldeweyher, S. Ehlert, A. Hansen, P. Pracht,
     J. Seibert, S. Spicher, S. Grimme, WIREs Comput. Mol. Sci., 2020, 11,
     e01493. DOI: 10.1002/wcms.1493
   
   for GFN2-xTB:
   * C. Bannwarth, S. Ehlert and S. Grimme., J. Chem. Theory Comput., 2019,
     15, 1652-1671. DOI: 10.1021/acs.jctc.8b01176
   for GFN1-xTB:
   * S. Grimme, C. Bannwarth, P. Shushkov, J. Chem. Theory Comput., 2017,
     13, 1989-2009. DOI: 10.1021/acs.jctc.7b00118
   for GFN0-xTB:
   * P. Pracht, E. Caldeweyher, S. Ehlert, S. Grimme, ChemRxiv, 2019, preprint.
     DOI: 10.26434/chemrxiv.8326202.v1
   for GFN-FF:
   * S. Spicher and S. Grimme, Angew. Chem. Int. Ed., 2020, 59, 15665-15673.
     DOI: 10.1002/anie.202004239
   
   for ALPB and GBSA implicit solvation:
   * S. Ehlert, M. Stahn, S. Spicher, S. Grimme, J. Chem. Theory Comput.,
     2021, 17, 4250-4261. DOI: 10.1021/acs.jctc.1c00471
   
   for DFT-D4:
   * E. Caldeweyher, C. Bannwarth and S. Grimme, J. Chem. Phys., 2017,
     147, 034112. DOI: 10.1063/1.4993215
   * E. Caldeweyher, S. Ehlert, A. Hansen, H. Neugebauer, S. Spicher,
     C. Bannwarth and S. Grimme, J. Chem. Phys., 2019, 150, 154122.
     DOI: 10.1063/1.5090222
   * E. Caldeweyher, J.-M. Mewes, S. Ehlert and S. Grimme, Phys. Chem. Chem. Phys.
     2020, 22, 8499-8512. DOI: 10.1039/D0CP00502A
   
   for sTDA-xTB:
   * S. Grimme and C. Bannwarth, J. Chem. Phys., 2016, 145, 054103.
     DOI: 10.1063/1.4959605
   
   in the mass-spec context:
   * V. Asgeirsson, C. Bauer and S. Grimme, Chem. Sci., 2017, 8, 4879.
     DOI: 10.1039/c7sc00601b
   * J. Koopman and S. Grimme, ACS Omega 2019, 4, 12, 15120-15133.
     DOI: 10.1021/acsomega.9b02011
   
   for metadynamics refer to:
   * S. Grimme, J. Chem. Theory Comput., 2019, 155, 2847-2862
     DOI: 10.1021/acs.jctc.9b00143
   
   for SPH calculations refer to:
   * S. Spicher and S. Grimme, J. Chem. Theory Comput., 2021, 17, 1701-1714
     DOI: 10.1021/acs.jctc.0c01306
   
   with help from (in alphabetical order)
   P. Atkinson, C. Bannwarth, F. Bohle, G. Brandenburg, E. Caldeweyher
   M. Checinski, S. Dohm, S. Ehlert, S. Ehrlich, I. Gerasimov, C. Hölzer
   A. Katbashev, J. Koopman, C. Lavigne, S. Lehtola, F. März, M. Müller,
   F. Musil, H. Neugebauer, J. Pisarek, C. Plett, P. Pracht, F. Pultar,
   J. Seibert, P. Shushkov, S. Spicher, M. Stahn, M. Steiner, T. Strunk,
   J. Stückrath, T. Rose, and J. Unsleber
   
 * started run on 2024/01/09 at 14:06:42.750     

           -------------------------------------------------
          |                Calculation Setup                |
           -------------------------------------------------

          program call               : xtb gau_xtb.xyz --chrg 1 --uhf 0 --grad
          hostname                   : node28
          coordinate file            : gau_xtb.xyz
          omp threads                :                    12

   ID    Z sym.   atoms
    1    6 C      1-4, 6-21, 23-26, 28, 29
    2    8 O      5, 22
    3    7 N      27
    4    1 H      30-59

           -------------------------------------------------
          |                 G F N 2 - x T B                 |
           -------------------------------------------------

        Reference                      10.1021/acs.jctc.8b01176
      * Hamiltonian:
        H0-scaling (s, p, d)           1.850000    2.230000    2.230000
        zeta-weighting                 0.500000
      * Dispersion:
        s8                             2.700000
        a1                             0.520000
        a2                             5.000000
        s9                             5.000000
      * Repulsion:
        kExp                           1.500000    1.000000
        rExp                           1.000000
      * Coulomb:
        alpha                          2.000000
        third order                    shell-resolved
        anisotropic                    true
        a3                             3.000000
        a5                             4.000000
        cn-shift                       1.200000
        cn-exp                         4.000000
        max-rad                        5.000000


          ...................................................
          :                      SETUP                      :
          :.................................................:
          :  # basis functions                 146          :
          :  # atomic orbitals                 146          :
          :  # shells                           88          :
          :  # electrons                       150          :
          :  max. iterations                   250          :
          :  Hamiltonian                  GFN2-xTB          :
          :  restarted?                      false          :
          :  GBSA solvation                  false          :
          :  PC potential                    false          :
          :  electronic temp.          300.0000000     K    :
          :  accuracy                    1.0000000          :
          :  -> integral cutoff          0.2500000E+02      :
          :  -> integral neglect         0.1000000E-07      :
          :  -> SCF convergence          0.1000000E-05 Eh   :
          :  -> wf. convergence          0.1000000E-03 e    :
          :  Broyden damping             0.4000000          :
          ...................................................

 iter      E             dE          RMSdq      gap      omega  full diag
   1    -82.6775616 -0.826776E+02  0.405E+00    3.28       0.0  T
   2    -82.8312302 -0.153669E+00  0.251E+00    3.19       1.0  T
   3    -82.8225021  0.872810E-02  0.110E+00    3.10       1.0  T
   4    -82.8258958 -0.339361E-02  0.531E-01    2.99       1.0  T
   5    -82.8420418 -0.161460E-01  0.142E-01    3.01       1.0  T
   6    -82.8426603 -0.618490E-03  0.661E-02    3.03       1.0  T
   7    -82.8427301 -0.698481E-04  0.278E-02    3.03       1.0  T
   8    -82.8427433 -0.132221E-04  0.110E-02    3.03       1.2  T
   9    -82.8427474 -0.410067E-05  0.400E-03    3.03       3.3  T
  10    -82.8427477 -0.260396E-06  0.175E-03    3.03       7.4  T
  11    -82.8427478 -0.837398E-07  0.634E-04    3.03      20.5  T
  12    -82.8427478 -0.700469E-08  0.260E-04    3.03      50.1  T

   *** convergence criteria satisfied after 12 iterations ***

         #    Occupation            Energy/Eh            Energy/eV
      -------------------------------------------------------------
         1        2.0000           -0.8755533             -23.8250
       ...           ...                  ...                  ...
        69        2.0000           -0.4744001             -12.9091
        70        2.0000           -0.4658751             -12.6771
        71        2.0000           -0.4616130             -12.5611
        72        2.0000           -0.4575351             -12.4502
        73        2.0000           -0.4550908             -12.3837
        74        2.0000           -0.4472428             -12.1701
        75        2.0000           -0.4279810             -11.6460 (HOMO)
        76                         -0.3166684              -8.6170 (LUMO)
        77                         -0.3083836              -8.3915
        78                         -0.2914896              -7.9318
        79                         -0.2825232              -7.6878
        80                         -0.2778639              -7.5611
       ...                                ...                  ...
       146                          0.5968817              16.2420
      -------------------------------------------------------------
                  HL-Gap            0.1113126 Eh            3.0290 eV
             Fermi-level           -0.3723247 Eh          -10.1315 eV

 SCC (total)                   0 d,  0 h,  0 min,  0.119 sec
 SCC setup                      ...        0 min,  0.001 sec (  0.896%)
 Dispersion                     ...        0 min,  0.003 sec (  2.161%)
 classical contributions        ...        0 min,  0.001 sec (  0.507%)
 integral evaluation            ...        0 min,  0.011 sec (  9.135%)
 iterations                     ...        0 min,  0.091 sec ( 76.718%)
 molecular gradient             ...        0 min,  0.012 sec ( 10.055%)
 printout                       ...        0 min,  0.000 sec (  0.318%)

         :::::::::::::::::::::::::::::::::::::::::::::::::::::
         ::                     SUMMARY                     ::
         :::::::::::::::::::::::::::::::::::::::::::::::::::::
         :: total energy             -81.563344035578 Eh    ::
         :: gradient norm              0.082659285118 Eh/a0 ::
         :: HOMO-LUMO gap              3.028970641281 eV    ::
         ::.................................................::
         :: SCC energy               -82.842747784263 Eh    ::
         :: -> isotropic ES            0.127736834871 Eh    ::
         :: -> anisotropic ES          0.000176108341 Eh    ::
         :: -> anisotropic XC          0.045074007134 Eh    ::
         :: -> dispersion             -0.063608465342 Eh    ::
         :: repulsion energy           1.278634282840 Eh    ::
         :: add. restraining           0.000000000000 Eh    ::
         :: total charge               1.000000000000 e     ::
         :::::::::::::::::::::::::::::::::::::::::::::::::::::

           -------------------------------------------------
          |                Property Printout                |
           -------------------------------------------------

    * Orbital Energies and Occupations

         #    Occupation            Energy/Eh            Energy/eV
      -------------------------------------------------------------
         1        2.0000           -0.8755533             -23.8250
       ...           ...                  ...                  ...
        63        2.0000           -0.4974434             -13.5361
        64        2.0000           -0.4926369             -13.4053
        65        2.0000           -0.4879790             -13.2786
        66        2.0000           -0.4870300             -13.2528
        67        2.0000           -0.4810713             -13.0906
        68        2.0000           -0.4779695             -13.0062
        69        2.0000           -0.4744001             -12.9091
        70        2.0000           -0.4658751             -12.6771
        71        2.0000           -0.4616130             -12.5611
        72        2.0000           -0.4575351             -12.4502
        73        2.0000           -0.4550908             -12.3837
        74        2.0000           -0.4472428             -12.1701
        75        2.0000           -0.4279810             -11.6460 (HOMO)
        76                         -0.3166684              -8.6170 (LUMO)
        77                         -0.3083836              -8.3915
        78                         -0.2914896              -7.9318
        79                         -0.2825232              -7.6878
        80                         -0.2778639              -7.5611
        81                         -0.2727957              -7.4231
        82                         -0.2648455              -7.2068
        83                         -0.2433748              -6.6226
        84                         -0.1833143              -4.9882
        85                         -0.1808407              -4.9209
        86                         -0.1721655              -4.6849
       ...                                ...                  ...
       146                          0.5968817              16.2420
      -------------------------------------------------------------
                  HL-Gap            0.1113126 Eh            3.0290 eV
             Fermi-level           -0.3723247 Eh          -10.1315 eV

     #   Z          covCN         q      C6AA      α(0)
     1   6 C        2.976     0.004    27.939     8.670
     2   6 C        2.920    -0.037    28.915     8.818
     3   6 C        2.909    -0.054    29.337     8.882
     4   6 C        2.844     0.142    24.898     8.178
     5   8 O        1.659    -0.403    20.904     6.172
     6   6 C        2.912    -0.065    29.614     8.923
     7   6 C        2.922    -0.033    28.824     8.804
     8   6 C        2.961    -0.014    28.357     8.735
     9   6 C        2.957     0.003    27.952     8.672
    10   6 C        3.800    -0.055    21.555     6.610
    11   6 C        3.747    -0.096    22.405     6.751
    12   6 C        2.977     0.011    27.773     8.645
    13   6 C        2.917    -0.034    28.844     8.807
    14   6 C        2.912    -0.030    28.738     8.791
    15   6 C        2.916    -0.032    28.787     8.798
    16   6 C        2.913    -0.029    28.727     8.789
    17   6 C        2.918    -0.034    28.839     8.806
    18   6 C        2.966     0.018    27.603     8.618
    19   6 C        2.918    -0.030    28.756     8.794
    20   6 C        2.913    -0.056    29.379     8.888
    21   6 C        2.848     0.126    25.226     8.232
    22   8 O        1.703    -0.302    19.027     5.889
    23   6 C        2.915    -0.062    29.547     8.914
    24   6 C        2.919    -0.029    28.733     8.790
    25   6 C        3.681     0.068    19.648     6.348
    26   6 C        3.735    -0.041    21.395     6.601
    27   7 N        3.569     0.050    20.366     6.703
    28   6 C        3.683    -0.096    22.557     6.801
    29   6 C        3.688    -0.099    22.590     6.803
    30   1 H        0.805     0.303     0.712     1.325
    31   1 H        0.924     0.026     2.644     2.543
    32   1 H        0.925     0.050     2.317     2.380
    33   1 H        0.859     0.233     0.952     1.529
    34   1 H        0.925     0.039     2.462     2.454
    35   1 H        0.924     0.037     2.484     2.465
    36   1 H        0.924     0.049     2.329     2.387
    37   1 H        0.924     0.040     2.454     2.450
    38   1 H        0.924     0.034     2.529     2.487
    39   1 H        0.924     0.041     2.436     2.441
    40   1 H        0.924     0.038     2.475     2.460
    41   1 H        0.924     0.027     2.629     2.536
    42   1 H        0.925     0.032     2.554     2.499
    43   1 H        0.925     0.033     2.548     2.496
    44   1 H        0.925     0.032     2.555     2.500
    45   1 H        0.925     0.026     2.638     2.540
    46   1 H        0.924     0.047     2.353     2.399
    47   1 H        0.925     0.034     2.523     2.484
    48   1 H        0.925     0.027     2.627     2.535
    49   1 H        0.924     0.046     2.370     2.407
    50   1 H        0.924     0.077     2.011     2.218
    51   1 H        0.924     0.057     2.231     2.336
    52   1 H        0.924     0.110     1.695     2.036
    53   1 H        0.924     0.101     1.774     2.083
    54   1 H        0.924     0.100     1.785     2.090
    55   1 H        0.925     0.134     1.504     1.918
    56   1 H        0.923     0.106     1.731     2.057
    57   1 H        0.924     0.108     1.713     2.047
    58   1 H        0.925     0.108     1.716     2.048
    59   1 H        0.924     0.109     1.703     2.041

 Mol. C6AA /au·bohr⁶  :      36535.729950
 Mol. C8AA /au·bohr⁸  :     872873.552769
 Mol. α(0) /au        :        301.419600


Wiberg/Mayer (AO) data.
largest (>0.10) Wiberg bond orders for each atom

 ---------------------------------------------------------------------------
     #   Z sym  total        # sym  WBO       # sym  WBO       # sym  WBO
 ---------------------------------------------------------------------------
     1   6 C    3.987 --     7 C    1.397     2 C    1.382     8 C    1.015
     2   6 C    3.988 --     3 C    1.464     1 C    1.382    31 H    0.970
                             6 C    0.107
     3   6 C    3.987 --     2 C    1.464     4 C    1.366    32 H    0.968
                             7 C    0.104
     4   6 C    3.939 --     6 C    1.382     3 C    1.366     5 O    1.053
     5   8 O    2.071 --     4 C    1.053    30 H    0.884
     6   6 C    3.988 --     7 C    1.447     4 C    1.382    34 H    0.967
                             2 C    0.107
     7   6 C    3.988 --     6 C    1.447     1 C    1.397    35 H    0.967
                             3 C    0.104
     8   6 C    3.981 --     9 C    1.768    18 C    1.025     1 C    1.015
     9   6 C    3.980 --     8 C    1.768    12 C    1.029    10 C    0.997
    10   6 C    3.994 --    11 C    1.004     9 C    0.997    37 H    0.974
                            36 H    0.960
    11   6 C    3.993 --    10 C    1.004    38 H    0.987    39 H    0.986
                            40 H    0.986
    12   6 C    3.987 --    17 C    1.391    13 C    1.389     9 C    1.029
                            15 C    0.110
    13   6 C    3.987 --    14 C    1.455    12 C    1.389    41 H    0.967
                            16 C    0.108
    14   6 C    3.991 --    13 C    1.455    15 C    1.429    42 H    0.970
                            17 C    0.109
    15   6 C    3.988 --    16 C    1.439    14 C    1.429    43 H    0.971
                            12 C    0.110
    16   6 C    3.991 --    17 C    1.447    15 C    1.439    44 H    0.970
                            13 C    0.108
    17   6 C    3.989 --    16 C    1.447    12 C    1.391    45 H    0.970
                            14 C    0.109
    18   6 C    3.984 --    24 C    1.400    19 C    1.369     8 C    1.025
    19   6 C    3.987 --    20 C    1.473    18 C    1.369    46 H    0.967
                            23 C    0.104
    20   6 C    3.986 --    19 C    1.473    21 C    1.357    47 H    0.968
                            24 C    0.102
    21   6 C    3.917 --    23 C    1.387    20 C    1.357    22 O    1.010
    22   8 O    2.151 --    21 C    1.010    25 C    0.969
    23   6 C    3.988 --    24 C    1.445    21 C    1.387    48 H    0.965
                            19 C    0.104
    24   6 C    3.987 --    23 C    1.445    18 C    1.400    49 H    0.968
                            20 C    0.102
    25   6 C    3.957 --    26 C    1.011    22 O    0.969    51 H    0.960
                            50 H    0.955
    26   6 C    3.925 --    25 C    1.011    52 H    0.966    53 H    0.964
                            27 N    0.929
    27   7 N    3.771 --    29 C    0.955    28 C    0.945    26 C    0.929
                            33 H    0.921
    28   6 C    3.903 --    54 H    0.977    56 H    0.975    55 H    0.964
                            27 N    0.945
    29   6 C    3.914 --    57 H    0.976    58 H    0.976    59 H    0.974
                            27 N    0.955
    30   1 H    0.908 --     5 O    0.884
    31   1 H    0.999 --     2 C    0.970
    32   1 H    0.997 --     3 C    0.968
    33   1 H    0.946 --    27 N    0.921
    34   1 H    0.998 --     6 C    0.967
    35   1 H    0.999 --     7 C    0.967
    36   1 H    0.996 --    10 C    0.960
    37   1 H    0.998 --    10 C    0.974
    38   1 H    0.999 --    11 C    0.987
    39   1 H    0.998 --    11 C    0.986
    40   1 H    0.998 --    11 C    0.986
    41   1 H    0.999 --    13 C    0.967
    42   1 H    0.998 --    14 C    0.970
    43   1 H    0.998 --    15 C    0.971
    44   1 H    0.999 --    16 C    0.970
    45   1 H    0.999 --    17 C    0.970
    46   1 H    0.997 --    19 C    0.967
    47   1 H    0.998 --    20 C    0.968
    48   1 H    0.999 --    23 C    0.965
    49   1 H    0.998 --    24 C    0.968
    50   1 H    0.994 --    25 C    0.955
    51   1 H    0.997 --    25 C    0.960
    52   1 H    0.988 --    26 C    0.966
    53   1 H    0.989 --    26 C    0.964
    54   1 H    0.990 --    28 C    0.977
    55   1 H    0.982 --    28 C    0.964
    56   1 H    0.989 --    28 C    0.975
    57   1 H    0.988 --    29 C    0.976
    58   1 H    0.988 --    29 C    0.976
    59   1 H    0.988 --    29 C    0.974
 ---------------------------------------------------------------------------

Topologies differ in total number of bonds
Writing topology from bond orders to xtbtopo.mol

molecular dipole:
                 x           y           z       tot (Debye)
 q only:       93.706     -61.898    -168.450
   full:       93.495     -62.063    -168.291     514.130
molecular quadrupole (traceless):
                xx          xy          yy          xz          yz          zz
 q only:    -7326.105   -8713.965  -14763.594  -23666.632   15627.856   22089.699
  q+dip:    -7342.144   -8724.452  -14696.740  -23587.402   15657.074   22038.884
   full:    -7343.785   -8722.808  -14697.838  -23587.561   15656.452   22041.623


           -------------------------------------------------
          | TOTAL ENERGY              -81.563344035578 Eh   |
          | GRADIENT NORM               0.082659285118 Eh/α |
          | HOMO-LUMO GAP               3.028970641281 eV   |
           -------------------------------------------------

------------------------------------------------------------------------
 * finished run on 2024/01/09 at 14:06:42.906     
------------------------------------------------------------------------
 total:
 * wall-time:     0 d,  0 h,  0 min,  0.156 sec
 *  cpu-time:     0 d,  0 h,  0 min,  3.120 sec
 * ratio c/w:    20.055 speedup
 SCF:
 * wall-time:     0 d,  0 h,  0 min,  0.120 sec
 *  cpu-time:     0 d,  0 h,  0 min,  2.503 sec
 * ratio c/w:    20.939 speedup

