      -----------------------------------------------------------      
     |                   =====================                   |     
     |                           x T B                           |     
     |                   =====================                   |     
     |                         S. Grimme                         |     
     |          Mulliken Center for Theoretical Chemistry        |     
     |                    University of Bonn                     |     
      -----------------------------------------------------------      

   * xtb version 6.6.0 (2ccbbd7) compiled by 'conda@6fe65c42fc39' on 2023-02-10

   xtb is free software: you can redistribute it and/or modify it under
   the terms of the GNU Lesser General Public License as published by
   the Free Software Foundation, either version 3 of the License, or
   (at your option) any later version.
   
   xtb is distributed in the hope that it will be useful,
   but WITHOUT ANY WARRANTY; without even the implied warranty of
   MERCHANTABILITY or FITNESS FOR A PARTICULAR PURPOSE.  See the
   GNU Lesser General Public License for more details.
   
   Cite this work as:
   * C. Bannwarth, E. Caldeweyher, S. Ehlert, A. Hansen, P. Pracht,
     J. Seibert, S. Spicher, S. Grimme, WIREs Comput. Mol. Sci., 2020, 11,
     e01493. DOI: 10.1002/wcms.1493
   
   for GFN2-xTB:
   * C. Bannwarth, S. Ehlert and S. Grimme., J. Chem. Theory Comput., 2019,
     15, 1652-1671. DOI: 10.1021/acs.jctc.8b01176
   for GFN1-xTB:
   * S. Grimme, C. Bannwarth, P. Shushkov, J. Chem. Theory Comput., 2017,
     13, 1989-2009. DOI: 10.1021/acs.jctc.7b00118
   for GFN0-xTB:
   * P. Pracht, E. Caldeweyher, S. Ehlert, S. Grimme, ChemRxiv, 2019, preprint.
     DOI: 10.26434/chemrxiv.8326202.v1
   for GFN-FF:
   * S. Spicher and S. Grimme, Angew. Chem. Int. Ed., 2020, 59, 15665-15673.
     DOI: 10.1002/anie.202004239
   
   for ALPB and GBSA implicit solvation:
   * S. Ehlert, M. Stahn, S. Spicher, S. Grimme, J. Chem. Theory Comput.,
     2021, 17, 4250-4261. DOI: 10.1021/acs.jctc.1c00471
   
   for DFT-D4:
   * E. Caldeweyher, C. Bannwarth and S. Grimme, J. Chem. Phys., 2017,
     147, 034112. DOI: 10.1063/1.4993215
   * E. Caldeweyher, S. Ehlert, A. Hansen, H. Neugebauer, S. Spicher,
     C. Bannwarth and S. Grimme, J. Chem. Phys., 2019, 150, 154122.
     DOI: 10.1063/1.5090222
   * E. Caldeweyher, J.-M. Mewes, S. Ehlert and S. Grimme, Phys. Chem. Chem. Phys.
     2020, 22, 8499-8512. DOI: 10.1039/D0CP00502A
   
   for sTDA-xTB:
   * S. Grimme and C. Bannwarth, J. Chem. Phys., 2016, 145, 054103.
     DOI: 10.1063/1.4959605
   
   in the mass-spec context:
   * V. Asgeirsson, C. Bauer and S. Grimme, Chem. Sci., 2017, 8, 4879.
     DOI: 10.1039/c7sc00601b
   * J. Koopman and S. Grimme, ACS Omega 2019, 4, 12, 15120-15133.
     DOI: 10.1021/acsomega.9b02011
   
   for metadynamics refer to:
   * S. Grimme, J. Chem. Theory Comput., 2019, 155, 2847-2862
     DOI: 10.1021/acs.jctc.9b00143
   
   for SPH calculations refer to:
   * S. Spicher and S. Grimme, J. Chem. Theory Comput., 2021, 17, 1701-1714
     DOI: 10.1021/acs.jctc.0c01306
   
   with help from (in alphabetical order)
   P. Atkinson, C. Bannwarth, F. Bohle, G. Brandenburg, E. Caldeweyher
   M. Checinski, S. Dohm, S. Ehlert, S. Ehrlich, I. Gerasimov, C. Hölzer
   A. Katbashev, J. Koopman, C. Lavigne, S. Lehtola, F. März, M. Müller,
   F. Musil, H. Neugebauer, J. Pisarek, C. Plett, P. Pracht, F. Pultar,
   J. Seibert, P. Shushkov, S. Spicher, M. Stahn, M. Steiner, T. Strunk,
   J. Stückrath, T. Rose, and J. Unsleber
   
 * started run on 2023/12/27 at 04:00:27.122     

           -------------------------------------------------
          |                Calculation Setup                |
           -------------------------------------------------

          program call               : xtb gau_xtb.xyz --chrg 1 --uhf 0 --grad
          hostname                   : node28
          coordinate file            : gau_xtb.xyz
          omp threads                :                    12

   ID    Z sym.   atoms
    1    6 C      1-25
    2    7 N      26-28
    3    1 H      29-58

           -------------------------------------------------
          |                 G F N 2 - x T B                 |
           -------------------------------------------------

        Reference                      10.1021/acs.jctc.8b01176
      * Hamiltonian:
        H0-scaling (s, p, d)           1.850000    2.230000    2.230000
        zeta-weighting                 0.500000
      * Dispersion:
        s8                             2.700000
        a1                             0.520000
        a2                             5.000000
        s9                             5.000000
      * Repulsion:
        kExp                           1.500000    1.000000
        rExp                           1.000000
      * Coulomb:
        alpha                          2.000000
        third order                    shell-resolved
        anisotropic                    true
        a3                             3.000000
        a5                             4.000000
        cn-shift                       1.200000
        cn-exp                         4.000000
        max-rad                        5.000000


          ...................................................
          :                      SETUP                      :
          :.................................................:
          :  # basis functions                 142          :
          :  # atomic orbitals                 142          :
          :  # shells                           86          :
          :  # electrons                       144          :
          :  max. iterations                   250          :
          :  Hamiltonian                  GFN2-xTB          :
          :  restarted?                      false          :
          :  GBSA solvation                  false          :
          :  PC potential                    false          :
          :  electronic temp.          300.0000000     K    :
          :  accuracy                    1.0000000          :
          :  -> integral cutoff          0.2500000E+02      :
          :  -> integral neglect         0.1000000E-07      :
          :  -> SCF convergence          0.1000000E-05 Eh   :
          :  -> wf. convergence          0.1000000E-03 e    :
          :  Broyden damping             0.4000000          :
          ...................................................

 iter      E             dE          RMSdq      gap      omega  full diag
   1    -78.3383973 -0.783384E+02  0.353E+00    1.02       0.0  T
   2    -78.4108212 -0.724240E-01  0.253E+00    1.50       1.0  T
   3    -78.2804178  0.130403E+00  0.143E+00    0.71       1.0  T
   4    -78.3485458 -0.681281E-01  0.111E+00    1.71       1.0  T
   5    -78.4573666 -0.108821E+00  0.190E-01    1.20       1.0  T
   6    -78.4584197 -0.105309E-02  0.607E-02    1.17       1.0  T
   7    -78.4584102  0.946073E-05  0.364E-02    1.16       1.0  T
   8    -78.4584657 -0.555064E-04  0.771E-03    1.17       1.7  T
   9    -78.4584683 -0.255061E-05  0.329E-03    1.17       4.0  T
  10    -78.4584688 -0.490266E-06  0.102E-03    1.17      12.9  T
  11    -78.4584688 -0.436209E-07  0.392E-04    1.17      33.5  T
  12    -78.4584688 -0.235771E-08  0.110E-04    1.17     119.3  T

   *** convergence criteria satisfied after 12 iterations ***

         #    Occupation            Energy/Eh            Energy/eV
      -------------------------------------------------------------
         1        2.0000           -0.7517913             -20.4573
       ...           ...                  ...                  ...
        66        2.0000           -0.5068920             -13.7932
        67        2.0000           -0.4994010             -13.5894
        68        2.0000           -0.4969935             -13.5239
        69        2.0000           -0.4968102             -13.5189
        70        2.0000           -0.4691414             -12.7660
        71        2.0000           -0.4474054             -12.1745
        72        2.0000           -0.4460966             -12.1389 (HOMO)
        73                         -0.4031836             -10.9712 (LUMO)
        74                         -0.3209244              -8.7328
        75                         -0.3177308              -8.6459
        76                         -0.3162192              -8.6048
        77                         -0.3136775              -8.5356
       ...                                ...                  ...
       142                          0.5527816              15.0420
      -------------------------------------------------------------
                  HL-Gap            0.0429130 Eh            1.1677 eV
             Fermi-level           -0.4245338 Eh          -11.5522 eV

 SCC (total)                   0 d,  0 h,  0 min,  0.460 sec
 SCC setup                      ...        0 min,  0.003 sec (  0.658%)
 Dispersion                     ...        0 min,  0.007 sec (  1.481%)
 classical contributions        ...        0 min,  0.001 sec (  0.152%)
 integral evaluation            ...        0 min,  0.012 sec (  2.588%)
 iterations                     ...        0 min,  0.408 sec ( 88.790%)
 molecular gradient             ...        0 min,  0.028 sec (  6.168%)
 printout                       ...        0 min,  0.000 sec (  0.103%)

         :::::::::::::::::::::::::::::::::::::::::::::::::::::
         ::                     SUMMARY                     ::
         :::::::::::::::::::::::::::::::::::::::::::::::::::::
         :: total energy             -77.219360690644 Eh    ::
         :: gradient norm              0.076553708788 Eh/a0 ::
         :: HOMO-LUMO gap              1.167721901729 eV    ::
         ::.................................................::
         :: SCC energy               -78.458468816693 Eh    ::
         :: -> isotropic ES            0.051010572180 Eh    ::
         :: -> anisotropic ES         -0.002171499611 Eh    ::
         :: -> anisotropic XC          0.049278206594 Eh    ::
         :: -> dispersion             -0.061606535284 Eh    ::
         :: repulsion energy           1.239444464172 Eh    ::
         :: add. restraining           0.000000000000 Eh    ::
         :: total charge               1.000000000078 e     ::
         :::::::::::::::::::::::::::::::::::::::::::::::::::::

           -------------------------------------------------
          |                Property Printout                |
           -------------------------------------------------

    * Orbital Energies and Occupations

         #    Occupation            Energy/Eh            Energy/eV
      -------------------------------------------------------------
         1        2.0000           -0.7517913             -20.4573
       ...           ...                  ...                  ...
        60        2.0000           -0.5322494             -14.4832
        61        2.0000           -0.5308232             -14.4444
        62        2.0000           -0.5200683             -14.1518
        63        2.0000           -0.5183075             -14.1039
        64        2.0000           -0.5132750             -13.9669
        65        2.0000           -0.5080912             -13.8259
        66        2.0000           -0.5068920             -13.7932
        67        2.0000           -0.4994010             -13.5894
        68        2.0000           -0.4969935             -13.5239
        69        2.0000           -0.4968102             -13.5189
        70        2.0000           -0.4691414             -12.7660
        71        2.0000           -0.4474054             -12.1745
        72        2.0000           -0.4460966             -12.1389 (HOMO)
        73                         -0.4031836             -10.9712 (LUMO)
        74                         -0.3209244              -8.7328
        75                         -0.3177308              -8.6459
        76                         -0.3162192              -8.6048
        77                         -0.3136775              -8.5356
        78                         -0.3128678              -8.5136
        79                         -0.2697485              -7.3402
        80                         -0.1958446              -5.3292
        81                         -0.1942118              -5.2848
        82                         -0.1688632              -4.5950
        83                         -0.1120909              -3.0501
       ...                                ...                  ...
       142                          0.5527816              15.0420
      -------------------------------------------------------------
                  HL-Gap            0.0429130 Eh            1.1677 eV
             Fermi-level           -0.4245338 Eh          -11.5522 eV

     #   Z          covCN         q      C6AA      α(0)
     1   6 C        2.959     0.028    27.372     8.581
     2   6 C        2.960     0.005    27.914     8.666
     3   6 C        2.916    -0.024    28.615     8.772
     4   6 C        2.912    -0.054    29.335     8.881
     5   6 C        2.906     0.073    26.375     8.421
     6   6 C        2.911    -0.053    29.328     8.880
     7   6 C        2.917    -0.024    28.602     8.770
     8   6 C        2.966     0.005    27.898     8.664
     9   6 C        2.919    -0.025    28.626     8.774
    10   6 C        2.914    -0.057    29.414     8.893
    11   6 C        2.904     0.073    26.367     8.419
    12   6 C        2.910    -0.054    29.333     8.881
    13   6 C        2.914    -0.024    28.601     8.770
    14   6 C        2.958     0.003    27.950     8.672
    15   6 C        2.914    -0.024    28.595     8.769
    16   6 C        2.907    -0.055    29.356     8.884
    17   6 C        2.905     0.073    26.378     8.421
    18   6 C        2.907    -0.054    29.334     8.881
    19   6 C        2.912    -0.025    28.616     8.772
    20   6 C        3.689    -0.055    21.762     6.677
    21   6 C        3.690    -0.054    21.742     6.673
    22   6 C        3.694    -0.058    21.793     6.679
    23   6 C        3.693    -0.058    21.802     6.681
    24   6 C        3.691    -0.055    21.753     6.674
    25   6 C        3.690    -0.057    21.786     6.680
    26   7 N        2.730    -0.050    22.201     6.998
    27   7 N        2.732    -0.048    22.177     6.994
    28   7 N        2.731    -0.048    22.169     6.993
    29   1 H        0.924     0.059     2.209     2.324
    30   1 H        0.924     0.064     2.156     2.296
    31   1 H        0.924     0.068     2.106     2.269
    32   1 H        0.923     0.061     2.192     2.315
    33   1 H        0.924     0.060     2.194     2.316
    34   1 H        0.924     0.068     2.108     2.271
    35   1 H        0.924     0.061     2.193     2.316
    36   1 H        0.925     0.067     2.118     2.276
    37   1 H        0.924     0.064     2.153     2.295
    38   1 H        0.923     0.056     2.245     2.343
    39   1 H        0.924     0.065     2.142     2.289
    40   1 H        0.924     0.066     2.136     2.285
    41   1 H        0.924     0.064     2.148     2.292
    42   1 H        0.923     0.057     2.239     2.340
    43   1 H        0.924     0.068     2.112     2.273
    44   1 H        0.924     0.061     2.185     2.311
    45   1 H        0.923     0.061     2.185     2.312
    46   1 H        0.924     0.068     2.106     2.270
    47   1 H        0.925     0.046     2.376     2.411
    48   1 H        0.925     0.049     2.329     2.387
    49   1 H        0.925     0.049     2.333     2.388
    50   1 H        0.925     0.042     2.420     2.433
    51   1 H        0.925     0.043     2.405     2.425
    52   1 H        0.925     0.047     2.356     2.400
    53   1 H        0.926     0.049     2.338     2.391
    54   1 H        0.925     0.043     2.408     2.427
    55   1 H        0.925     0.045     2.377     2.411
    56   1 H        0.925     0.048     2.344     2.394
    57   1 H        0.925     0.049     2.338     2.391
    58   1 H        0.925     0.046     2.368     2.406

 Mol. C6AA /au·bohr⁶  :      35319.414092
 Mol. C8AA /au·bohr⁸  :     838663.818088
 Mol. α(0) /au        :        297.076984


Wiberg/Mayer (AO) data.
largest (>0.10) Wiberg bond orders for each atom

 ---------------------------------------------------------------------------
     #   Z sym  total        # sym  WBO       # sym  WBO       # sym  WBO
 ---------------------------------------------------------------------------
     1   6 C    3.846 --     2 C    1.205    14 C    1.198     8 C    1.183
     2   6 C    3.972 --     3 C    1.294     7 C    1.287     1 C    1.205
     3   6 C    3.969 --     4 C    1.536     2 C    1.294    58 H    0.965
     4   6 C    3.974 --     3 C    1.536     5 C    1.283    57 H    0.963
     5   6 C    3.947 --     4 C    1.283     6 C    1.282    26 N    1.228
     6   6 C    3.972 --     7 C    1.540     5 C    1.282    56 H    0.964
     7   6 C    3.970 --     6 C    1.540     2 C    1.287    55 H    0.965
     8   6 C    3.973 --    13 C    1.301     9 C    1.297     1 C    1.183
     9   6 C    3.971 --    10 C    1.532     8 C    1.297    54 H    0.966
    10   6 C    3.974 --     9 C    1.532    11 C    1.280    53 H    0.960
    11   6 C    3.951 --    10 C    1.280    12 C    1.280    27 N    1.232
    12   6 C    3.972 --    13 C    1.532    11 C    1.280    52 H    0.963
    13   6 C    3.972 --    12 C    1.532     8 C    1.301    51 H    0.968
    14   6 C    3.973 --    19 C    1.293    15 C    1.290     1 C    1.198
    15   6 C    3.971 --    16 C    1.542    14 C    1.290    50 H    0.966
    16   6 C    3.973 --    15 C    1.542    17 C    1.275    49 H    0.963
    17   6 C    3.942 --    18 C    1.280    16 C    1.275    28 N    1.235
    18   6 C    3.973 --    19 C    1.537    17 C    1.280    48 H    0.964
    19   6 C    3.967 --    18 C    1.537    14 C    1.293    47 H    0.966
    20   6 C    3.966 --    26 N    1.006    46 H    0.979    45 H    0.972
                            44 H    0.969
    21   6 C    3.966 --    26 N    1.008    43 H    0.978    42 H    0.971
                            41 H    0.970
    22   6 C    3.967 --    27 N    1.007    40 H    0.975    39 H    0.975
                            38 H    0.970
    23   6 C    3.966 --    27 N    1.006    36 H    0.973    37 H    0.973
                            35 H    0.971
    24   6 C    3.967 --    28 N    1.008    34 H    0.978    33 H    0.972
                            32 H    0.969
    25   6 C    3.966 --    28 N    1.004    31 H    0.978    30 H    0.974
                            29 H    0.970
    26   7 N    3.418 --     5 C    1.228    21 C    1.008    20 C    1.006
    27   7 N    3.424 --    11 C    1.232    22 C    1.007    23 C    1.006
    28   7 N    3.425 --    17 C    1.235    24 C    1.008    25 C    1.004
    29   1 H    0.989 --    25 C    0.970
    30   1 H    0.993 --    25 C    0.974
    31   1 H    0.994 --    25 C    0.978
    32   1 H    0.989 --    24 C    0.969
    33   1 H    0.993 --    24 C    0.972
    34   1 H    0.994 --    24 C    0.978
    35   1 H    0.989 --    23 C    0.971
    36   1 H    0.995 --    23 C    0.973
    37   1 H    0.990 --    23 C    0.973
    38   1 H    0.988 --    22 C    0.970
    39   1 H    0.995 --    22 C    0.975
    40   1 H    0.991 --    22 C    0.975
    41   1 H    0.991 --    21 C    0.970
    42   1 H    0.991 --    21 C    0.971
    43   1 H    0.995 --    21 C    0.978
    44   1 H    0.991 --    20 C    0.969
    45   1 H    0.991 --    20 C    0.972
    46   1 H    0.995 --    20 C    0.979
    47   1 H    0.997 --    19 C    0.966
    48   1 H    0.997 --    18 C    0.964
    49   1 H    0.997 --    16 C    0.963
    50   1 H    0.998 --    15 C    0.966
    51   1 H    0.997 --    13 C    0.968
    52   1 H    0.997 --    12 C    0.963
    53   1 H    0.997 --    10 C    0.960
    54   1 H    0.997 --     9 C    0.966
    55   1 H    0.997 --     7 C    0.965
    56   1 H    0.997 --     6 C    0.964
    57   1 H    0.997 --     4 C    0.963
    58   1 H    0.997 --     3 C    0.965
 ---------------------------------------------------------------------------

Topologies differ in total number of bonds
Writing topology from bond orders to xtbtopo.mol

molecular dipole:
                 x           y           z       tot (Debye)
 q only:       19.748     -56.824     -57.747
   full:       19.725     -56.839     -57.735     211.943
molecular quadrupole (traceless):
                xx          xy          yy          xz          yz          zz
 q only:    -2918.261   -1698.206    1391.259   -1661.644    4934.208    1527.002
  q+dip:    -2922.109   -1697.674    1397.226   -1656.202    4935.517    1524.883
   full:    -2920.929   -1696.837    1395.390   -1658.779    4934.600    1525.539


           -------------------------------------------------
          | TOTAL ENERGY              -77.219360690644 Eh   |
          | GRADIENT NORM               0.076553708788 Eh/α |
          | HOMO-LUMO GAP               1.167721901729 eV   |
           -------------------------------------------------

------------------------------------------------------------------------
 * finished run on 2023/12/27 at 04:00:27.734     
------------------------------------------------------------------------
 total:
 * wall-time:     0 d,  0 h,  0 min,  0.612 sec
 *  cpu-time:     0 d,  0 h,  0 min,  9.129 sec
 * ratio c/w:    14.921 speedup
 SCF:
 * wall-time:     0 d,  0 h,  0 min,  0.460 sec
 *  cpu-time:     0 d,  0 h,  0 min,  7.762 sec
 * ratio c/w:    16.867 speedup

